 +---------------------------------------------------------------+
 |                                                               |
 |        ####### #     # ####### ####### ####### ######         |
 |        #     # ##    # #          #    #       #     #        |
 |        #     # # #   # #          #    #       #     #        |
 |        #     # #  #  # #####      #    #####   ######         |
 |        #     # #   # # #          #    #       #              |
 |        #     # #    ## #          #    #       #              |
 |        ####### #     # #######    #    ####### #              |
 |                                                               |
 |        Linear-Scaling Ab Initio Total Energy Program          |
 |                                                               |
 |          Release for academic collaborators of ODG            |
 |                                             Version 5.3.2.12  |
 |                                                               |
 +---------------------------------------------------------------+
 |                                                               |
 |  Authors:                                                     |
 |  Jacek Dziedzic, Peter D. Haynes, Nicholas D. M. Hine,        |
 |  Arash. A. Mostofi, Mike C. Payne and Chris-Kriton Skylaris   |
 |                                                               |
 |  Contributors:                                                |
 |  J. Aarons, L. Andrinopoulos, P. W. Avraam, R. A. Bell,       |
 |  A. Bhandari, G. A. Bramley, R. J. Charlton, S. J. Clark,     |
 |  R. J. Clements, G. C. Constantinescu, F. Corsetti,           |
 |  N. Corsini, O. Dieguez, S. M. M. Dubois, K. K. B. Duff,      |
 |  J. M. Escartin, A. Greco, H. Helal, Q. O. Hill, L. P. Lee,   |
 |  J.-H. Li, E. B. Linscott, G. Moynihan, D. D. O`Regan,        |
 |  O. K. Okan, M. J. S. Phipps, C. J. Pickard,                  |
 |  J. C. A. Prentice, M. I. J. Probert, L. E. Ratcliff,         |
 |  M. Robinson, A. Ruiz Serrano, J. S. Spencer, E. W. Tait,     |
 |  G. Teobaldi, D. Turban, V. Vitale, K. A. Wilkinson,          |
 |  C. Weber, J. C. Womack, N. Yeung and T. J. Zuehlsdorff       |
 |                                                               |
 |                                   Copyright (c) 2004-2020     |
 |                                                               |
 |  Please cite:                                                 |
 |  "Introducing ONETEP: Linear-scaling density functional       |
 |   simulations on parallel computers".                         |
 |   C.-K. Skylaris, P. D. Haynes, A. A. Mostofi, M. C. Payne.   |
 |   J. Chem. Phys. 122 084119 (2005).                           |
 |                                                               |
 |          in all publications arising from your use of ONETEP. |
 |                                                               |
 +---------------------------------------------------------------+
 |                                                               |
 |   ONETEP is based on developments described in the following  |
 |   publications:                                               |
 |                                                               |
 |  "Nonorthogonal generalized Wannier function pseudopotential  |
 |   plane-wave method".                                         |
 |   C.-K. Skylaris, A. A. Mostofi, P. D. Haynes, O. Dieguez,    |
 |   M. C. Payne.                                                |
 |   Phys. Rev. B 66 035119 (2002).                              |
 |                                                               |
 |  "Preconditioned iterative minimization for linear-scaling    |
 |   electronic structure calculations".                         |
 |   A. A. Mostofi, P. D. Haynes, C.-K. Skylaris, M. C. Payne.   |
 |   J. Chem. Phys. 119(17), pp.8842-8848 (2003).                |
 |                                                               |
 |  "Total-energy calculations on a real space grid with         |
 |   localized functions and a plane-wave basis".                |
 |   A. A. Mostofi, C.-K. Skylaris, P. D. Haynes, M. C. Payne.   |
 |   Comput. Phys. Commun. 147, pp.788-802 (2002).               |
 |                                                               |
 |  "Accurate kinetic energy evaluation in electronic structure  |
 |   calculations with localized functions on real space grids"  |
 |   C.-K. Skylaris, A. A. Mostofi, P. D. Haynes, C. J. Pickard, |
 |   M. C. Payne.                                                |
 |   Comput. Phys. Commun. 140, pp.315-322 (2001).               |
 |                                                               |
 |  "Accurate ionic forces and geometry optimization in linear-  |
 |   scaling density-functional theory with local orbitals"      |
 |   N. D. M. Hine, M. Robinson, P. D. Haynes, C.-K. Skylaris,   |
 |   M. C. Payne, and A. A. Mostofi.                             |
 |   Phys. Rev. B 83 195102 (2011).                              |
 |                                                               |
 +---------------------------------------------------------------+

Job started: 21-02-2020 12:07 (-0000)
 
Reading parameters from file "3.1661816_GO_manual_4x64graphite.dat" ...

WARNING: "cutoff_energy" not specified, but "psinc_spacing" specified.
         Using the latter to set the KE cutoff energy to  732.32021eV,
         thus *overriding* the default.

... done

If your calculation crashes here, before "Checking processes and threads..."
is displayed, then your stack size is insufficient.
If so, use "ulimit -s unlimited" at runtime.
You can disable this check with "check_stack_size F".

Checking processes and threads...
   Determining the default number of threads...
      No default threads set at compilation time: defaulting to 1.
      OpenMP library call suggests 4 threads.
      Hybrid MPI-OpenMP compilation detected.
      Number of MPI processes > 1.
      OMP_NUM_THREADS environment variable present and
      its value matches the one obtained from the OpenMP library call.
      Using this value as default.
      Default threads: 4
      Default applies to threads_max and threads_num_fftboxes.
      Settings in the input file override this default.
   ... done

   Running with 40 MPI processes.
   There are 10 MPI processes running on the same node as the root process.
   Each MPI process is using: 
               1 threads for simulation cell FFTs.
               1 threads for parallel FFT box operations.
               4 threads for loops over batched FFT box operations.
               4 threads in other parallel regions.
... done

Basic input checks...
Resetting ngwf_cg_rotate to TRUE for EDFT calculations
... done

Reading geometry and species blocks from file "3.1661816_GO_manual_4x64graphite.dat" ...
    
  PSINC grid spacing along a1 set to   0.511215680000a0 from input file.
  PSINC grid spacing along a2 set to   0.531284090000a0 from input file.
  PSINC grid spacing along a3 set to   0.507053250000a0 from input file.
  Number of PPD points along a3 set to 1.  This is 
  the default value, it may have been provided also in the input file.
... done
 Writing xyz coordinates to file "3.1661816_GO_manual_4x64graphite.xyz" ... done


--------------------------------------------------------------------------------
---------------------------------- INPUT FILE ----------------------------------
--------------------------------------------------------------------------------

task : singlepoint                                                              
do_properties : true                                                            
dx_format T                                                                     
edft T                                                                          
output_detail VERBOSE                                                           
write_xyz T                                                                     
xc_functional VV10                                                              
PSINC_SPACING 0.51121568 0.53128409 0.50705325                                  
paw T                                                                           
pdos_max_l = 2                                                                  
dos_smear  0.1 eV                                                               
popn_calculate T                                                                
PDOS_PSEUDOATOMIC T                                                             
PDOS_REDUCE_SWS F                                                               
PDOS_CONSTRUCT_BASIS F                                                          
PDOS_LOWDIN T                                                                   
PDOS_ORTH_ATOM_BLOCKS F                                                         
PDOS_LCAO_OPTIMIZE F                                                            
pdos_optados_output T                                                           
homo_plot 0                                                                     
lumo_plot 0                                                                     
homo_dens_plot -1                                                               
lumo_dens_plot -1                                                               
%BLOCK SPECIES                                                                  
C C 6 4 9.0                                                                     
%ENDBLOCK SPECIES                                                               
%BLOCK SPECIES_POT                                                              
C "~/pp/paw/c_pbe_abinit.paw"                                                   
%ENDBLOCK SPECIES_POT                                                           
%BLOCK SPECIES_ATOMIC_SET                                                       
C "SOLVE conf=2s2 2p2"                                                          
%ENDBLOCK SPECIES_ATOMIC_SET                                                    
%BLOCK LATTICE_CART                                                             
32.21  0.00  0.00                                                               
0.00 18.59  0.00                                                                
0.00  0.00 59.83                                                                
%ENDBLOCK LATTICE_CART                                                          
%BLOCK POSITIONS_ABS                                                            
C  0.00  0.00  2.99                                                             
C  0.00  0.00 14.96                                                             
C  0.00  0.00 26.92                                                             
C  0.00  0.00 38.89                                                             
C  0.00  0.00 50.86                                                             
C  0.00  4.65  2.99                                                             
C  0.00  4.65 14.96                                                             
C  0.00  4.65 26.92                                                             
C  0.00  4.65 38.89                                                             
C  0.00  4.65 50.86                                                             
C  4.03  2.32  2.99                                                             
C  4.03  2.32 14.96                                                             
C  4.03  2.32 26.92                                                             
C  4.03  2.32 38.89                                                             
C  4.03  2.32 50.86                                                             
C  8.05  0.00  2.99                                                             
C  8.05  0.00 14.96                                                             
C  8.05  0.00 26.92                                                             
C  8.05  0.00 38.89                                                             
C  8.05  0.00 50.86                                                             
C  0.00  9.30  2.99                                                             
C  0.00  9.30 14.96                                                             
C  0.00  9.30 26.92                                                             
C  0.00  9.30 38.89                                                             
C  0.00  9.30 50.86                                                             
C  4.03  6.97  2.99                                                             
C  4.03  6.97 14.96                                                             
C  4.03  6.97 26.92                                                             
C  4.03  6.97 38.89                                                             
C  4.03  6.97 50.86                                                             
C  8.05  4.65  2.99                                                             
C  8.05  4.65 14.96                                                             
C  8.05  4.65 26.92                                                             
C  8.05  4.65 38.89                                                             
C  8.05  4.65 50.86                                                             
C 12.08  2.32  2.99                                                             
C 12.08  2.32 14.96                                                             
C 12.08  2.32 26.92                                                             
C 12.08  2.32 38.89                                                             
C 12.08  2.32 50.86                                                             
C 16.10  0.00  2.99                                                             
C 16.10  0.00 14.96                                                             
C 16.10  0.00 26.92                                                             
C 16.10  0.00 38.89                                                             
C 16.10  0.00 50.86                                                             
C  0.00 13.95  2.99                                                             
C  0.00 13.95 14.96                                                             
C  0.00 13.95 26.92                                                             
C  0.00 13.95 38.89                                                             
C  0.00 13.95 50.86                                                             
C  4.03 11.62  2.99                                                             
C  4.03 11.62 14.96                                                             
C  4.03 11.62 26.92                                                             
C  4.03 11.62 38.89                                                             
C  4.03 11.62 50.86                                                             
C  8.05  9.30  2.99                                                             
C  8.05  9.30 14.96                                                             
C  8.05  9.30 26.92                                                             
C  8.05  9.30 38.89                                                             
C  8.05  9.30 50.86                                                             
C 12.08  6.97  2.99                                                             
C 12.08  6.97 14.96                                                             
C 12.08  6.97 26.92                                                             
C 12.08  6.97 38.89                                                             
C 12.08  6.97 50.86                                                             
C 16.10  4.65  2.99                                                             
C 16.10  4.65 14.96                                                             
C 16.10  4.65 26.92                                                             
C 16.10  4.65 38.89                                                             
C 16.10  4.65 50.86                                                             
C 20.13  2.32  2.99                                                             
C 20.13  2.32 14.96                                                             
C 20.13  2.32 26.92                                                             
C 20.13  2.32 38.89                                                             
C 20.13  2.32 50.86                                                             
C 24.16  0.00  2.99                                                             
C 24.16  0.00 14.96                                                             
C 24.16  0.00 26.92                                                             
C 24.16  0.00 38.89                                                             
C 24.16  0.00 50.86                                                             
C  4.03 16.27  2.99                                                             
C  4.03 16.27 14.96                                                             
C  4.03 16.27 26.92                                                             
C  4.03 16.27 38.89                                                             
C  4.03 16.27 50.86                                                             
C  8.05 13.95  2.99                                                             
C  8.05 13.95 14.96                                                             
C  8.05 13.95 26.92                                                             
C  8.05 13.95 38.89                                                             
C  8.05 13.95 50.86                                                             
C 12.08 11.62  2.99                                                             
C 12.08 11.62 14.96                                                             
C 12.08 11.62 26.92                                                             
C 12.08 11.62 38.89                                                             
C 12.08 11.62 50.86                                                             
C 16.10  9.30  2.99                                                             
C 16.10  9.30 14.96                                                             
C 16.10  9.30 26.92                                                             
C 16.10  9.30 38.89                                                             
C 16.10  9.30 50.86                                                             
C 20.13  6.97  2.99                                                             
C 20.13  6.97 14.96                                                             
C 20.13  6.97 26.92                                                             
C 20.13  6.97 38.89                                                             
C 20.13  6.97 50.86                                                             
C 24.16  4.65  2.99                                                             
C 24.16  4.65 14.96                                                             
C 24.16  4.65 26.92                                                             
C 24.16  4.65 38.89                                                             
C 24.16  4.65 50.86                                                             
C 28.18  2.32  2.99                                                             
C 28.18  2.32 14.96                                                             
C 28.18  2.32 26.92                                                             
C 28.18  2.32 38.89                                                             
C 28.18  2.32 50.86                                                             
C 12.08 16.27  2.99                                                             
C 12.08 16.27 14.96                                                             
C 12.08 16.27 26.92                                                             
C 12.08 16.27 38.89                                                             
C 12.08 16.27 50.86                                                             
C 16.10 13.95  2.99                                                             
C 16.10 13.95 14.96                                                             
C 16.10 13.95 26.92                                                             
C 16.10 13.95 38.89                                                             
C 16.10 13.95 50.86                                                             
C 20.13 11.62  2.99                                                             
C 20.13 11.62 14.96                                                             
C 20.13 11.62 26.92                                                             
C 20.13 11.62 38.89                                                             
C 20.13 11.62 50.86                                                             
C 24.16  9.30  2.99                                                             
C 24.16  9.30 14.96                                                             
C 24.16  9.30 26.92                                                             
C 24.16  9.30 38.89                                                             
C 24.16  9.30 50.86                                                             
C 28.18  6.97  2.99                                                             
C 28.18  6.97 14.96                                                             
C 28.18  6.97 26.92                                                             
C 28.18  6.97 38.89                                                             
C 28.18  6.97 50.86                                                             
C 20.13 16.27  2.99                                                             
C 20.13 16.27 14.96                                                             
C 20.13 16.27 26.92                                                             
C 20.13 16.27 38.89                                                             
C 20.13 16.27 50.86                                                             
C 24.16 13.95  2.99                                                             
C 24.16 13.95 14.96                                                             
C 24.16 13.95 26.92                                                             
C 24.16 13.95 38.89                                                             
C 24.16 13.95 50.86                                                             
C 28.18 11.62  2.99                                                             
C 28.18 11.62 14.96                                                             
C 28.18 11.62 26.92                                                             
C 28.18 11.62 38.89                                                             
C 28.18 11.62 50.86                                                             
C 28.18 16.27  2.99                                                             
C 28.18 16.27 14.96                                                             
C 28.18 16.27 26.92                                                             
C 28.18 16.27 38.89                                                             
C 28.18 16.27 50.86                                                             
C  0.00  0.00  8.97                                                             
C  0.00  0.00 20.94                                                             
C  0.00  0.00 32.91                                                             
C  0.00  0.00 44.87                                                             
C  0.00  0.00 56.84                                                             
C  0.00  4.65  8.97                                                             
C  0.00  4.65 20.94                                                             
C  0.00  4.65 32.91                                                             
C  0.00  4.65 44.87                                                             
C  0.00  4.65 56.84                                                             
C  4.03  2.32  8.97                                                             
C  4.03  2.32 20.94                                                             
C  4.03  2.32 32.91                                                             
C  4.03  2.32 44.87                                                             
C  4.03  2.32 56.84                                                             
C  8.05  0.00  8.97                                                             
C  8.05  0.00 20.94                                                             
C  8.05  0.00 32.91                                                             
C  8.05  0.00 44.87                                                             
C  8.05  0.00 56.84                                                             
C  0.00  9.30  8.97                                                             
C  0.00  9.30 20.94                                                             
C  0.00  9.30 32.91                                                             
C  0.00  9.30 44.87                                                             
C  0.00  9.30 56.84                                                             
C  4.03  6.97  8.97                                                             
C  4.03  6.97 20.94                                                             
C  4.03  6.97 32.91                                                             
C  4.03  6.97 44.87                                                             
C  4.03  6.97 56.84                                                             
C  8.05  4.65  8.97                                                             
C  8.05  4.65 20.94                                                             
C  8.05  4.65 32.91                                                             
C  8.05  4.65 44.87                                                             
C  8.05  4.65 56.84                                                             
C 12.08  2.32  8.97                                                             
C 12.08  2.32 20.94                                                             
C 12.08  2.32 32.91                                                             
C 12.08  2.32 44.87                                                             
C 12.08  2.32 56.84                                                             
C 16.10  0.00  8.97                                                             
C 16.10  0.00 20.94                                                             
C 16.10  0.00 32.91                                                             
C 16.10  0.00 44.87                                                             
C 16.10  0.00 56.84                                                             
C  0.00 13.95  8.97                                                             
C  0.00 13.95 20.94                                                             
C  0.00 13.95 32.91                                                             
C  0.00 13.95 44.87                                                             
C  0.00 13.95 56.84                                                             
C  4.03 11.62  8.97                                                             
C  4.03 11.62 20.94                                                             
C  4.03 11.62 32.91                                                             
C  4.03 11.62 44.87                                                             
C  4.03 11.62 56.84                                                             
C  8.05  9.30  8.97                                                             
C  8.05  9.30 20.94                                                             
C  8.05  9.30 32.91                                                             
C  8.05  9.30 44.87                                                             
C  8.05  9.30 56.84                                                             
C 12.08  6.97  8.97                                                             
C 12.08  6.97 20.94                                                             
C 12.08  6.97 32.91                                                             
C 12.08  6.97 44.87                                                             
C 12.08  6.97 56.84                                                             
C 16.10  4.65  8.97                                                             
C 16.10  4.65 20.94                                                             
C 16.10  4.65 32.91                                                             
C 16.10  4.65 44.87                                                             
C 16.10  4.65 56.84                                                             
C 20.13  2.32  8.97                                                             
C 20.13  2.32 20.94                                                             
C 20.13  2.32 32.91                                                             
C 20.13  2.32 44.87                                                             
C 20.13  2.32 56.84                                                             
C 24.16  0.00  8.97                                                             
C 24.16  0.00 20.94                                                             
C 24.16  0.00 32.91                                                             
C 24.16  0.00 44.87                                                             
C 24.16  0.00 56.84                                                             
C  4.03 16.27  8.97                                                             
C  4.03 16.27 20.94                                                             
C  4.03 16.27 32.91                                                             
C  4.03 16.27 44.87                                                             
C  4.03 16.27 56.84                                                             
C  8.05 13.95  8.97                                                             
C  8.05 13.95 20.94                                                             
C  8.05 13.95 32.91                                                             
C  8.05 13.95 44.87                                                             
C  8.05 13.95 56.84                                                             
C 12.08 11.62  8.97                                                             
C 12.08 11.62 20.94                                                             
C 12.08 11.62 32.91                                                             
C 12.08 11.62 44.87                                                             
C 12.08 11.62 56.84                                                             
C 16.10  9.30  8.97                                                             
C 16.10  9.30 20.94                                                             
C 16.10  9.30 32.91                                                             
C 16.10  9.30 44.87                                                             
C 16.10  9.30 56.84                                                             
C 20.13  6.97  8.97                                                             
C 20.13  6.97 20.94                                                             
C 20.13  6.97 32.91                                                             
C 20.13  6.97 44.87                                                             
C 20.13  6.97 56.84                                                             
C 24.16  4.65  8.97                                                             
C 24.16  4.65 20.94                                                             
C 24.16  4.65 32.91                                                             
C 24.16  4.65 44.87                                                             
C 24.16  4.65 56.84                                                             
C 28.18  2.32  8.97                                                             
C 28.18  2.32 20.94                                                             
C 28.18  2.32 32.91                                                             
C 28.18  2.32 44.87                                                             
C 28.18  2.32 56.84                                                             
C 12.08 16.27  8.97                                                             
C 12.08 16.27 20.94                                                             
C 12.08 16.27 32.91                                                             
C 12.08 16.27 44.87                                                             
C 12.08 16.27 56.84                                                             
C 16.10 13.95  8.97                                                             
C 16.10 13.95 20.94                                                             
C 16.10 13.95 32.91                                                             
C 16.10 13.95 44.87                                                             
C 16.10 13.95 56.84                                                             
C 20.13 11.62  8.97                                                             
C 20.13 11.62 20.94                                                             
C 20.13 11.62 32.91                                                             
C 20.13 11.62 44.87                                                             
C 20.13 11.62 56.84                                                             
C 24.16  9.30  8.97                                                             
C 24.16  9.30 20.94                                                             
C 24.16  9.30 32.91                                                             
C 24.16  9.30 44.87                                                             
C 24.16  9.30 56.84                                                             
C 28.18  6.97  8.97                                                             
C 28.18  6.97 20.94                                                             
C 28.18  6.97 32.91                                                             
C 28.18  6.97 44.87                                                             
C 28.18  6.97 56.84                                                             
C 20.13 16.27  8.97                                                             
C 20.13 16.27 20.94                                                             
C 20.13 16.27 32.91                                                             
C 20.13 16.27 44.87                                                             
C 20.13 16.27 56.84                                                             
C 24.16 13.95  8.97                                                             
C 24.16 13.95 20.94                                                             
C 24.16 13.95 32.91                                                             
C 24.16 13.95 44.87                                                             
C 24.16 13.95 56.84                                                             
C 28.18 11.62  8.97                                                             
C 28.18 11.62 20.94                                                             
C 28.18 11.62 32.91                                                             
C 28.18 11.62 44.87                                                             
C 28.18 11.62 56.84                                                             
C 28.18 16.27  8.97                                                             
C 28.18 16.27 20.94                                                             
C 28.18 16.27 32.91                                                             
C 28.18 16.27 44.87                                                             
C 28.18 16.27 56.84                                                             
C  1.34  2.32  2.99                                                             
C  1.34  2.32 14.96                                                             
C  1.34  2.32 26.92                                                             
C  1.34  2.32 38.89                                                             
C  1.34  2.32 50.86                                                             
C  5.37  0.00  2.99                                                             
C  5.37  0.00 14.96                                                             
C  5.37  0.00 26.92                                                             
C  5.37  0.00 38.89                                                             
C  5.37  0.00 50.86                                                             
C  1.34  6.97  2.99                                                             
C  1.34  6.97 14.96                                                             
C  1.34  6.97 26.92                                                             
C  1.34  6.97 38.89                                                             
C  1.34  6.97 50.86                                                             
C  5.37  4.65  2.99                                                             
C  5.37  4.65 14.96                                                             
C  5.37  4.65 26.92                                                             
C  5.37  4.65 38.89                                                             
C  5.37  4.65 50.86                                                             
C  9.39  2.32  2.99                                                             
C  9.39  2.32 14.96                                                             
C  9.39  2.32 26.92                                                             
C  9.39  2.32 38.89                                                             
C  9.39  2.32 50.86                                                             
C 13.42  0.00  2.99                                                             
C 13.42  0.00 14.96                                                             
C 13.42  0.00 26.92                                                             
C 13.42  0.00 38.89                                                             
C 13.42  0.00 50.86                                                             
C  1.34 11.62  2.99                                                             
C  1.34 11.62 14.96                                                             
C  1.34 11.62 26.92                                                             
C  1.34 11.62 38.89                                                             
C  1.34 11.62 50.86                                                             
C  5.37  9.30  2.99                                                             
C  5.37  9.30 14.96                                                             
C  5.37  9.30 26.92                                                             
C  5.37  9.30 38.89                                                             
C  5.37  9.30 50.86                                                             
C  9.39  6.97  2.99                                                             
C  9.39  6.97 14.96                                                             
C  9.39  6.97 26.92                                                             
C  9.39  6.97 38.89                                                             
C  9.39  6.97 50.86                                                             
C 13.42  4.65  2.99                                                             
C 13.42  4.65 14.96                                                             
C 13.42  4.65 26.92                                                             
C 13.42  4.65 38.89                                                             
C 13.42  4.65 50.86                                                             
C 17.45  2.32  2.99                                                             
C 17.45  2.32 14.96                                                             
C 17.45  2.32 26.92                                                             
C 17.45  2.32 38.89                                                             
C 17.45  2.32 50.86                                                             
C 21.47  0.00  2.99                                                             
C 21.47  0.00 14.96                                                             
C 21.47  0.00 26.92                                                             
C 21.47  0.00 38.89                                                             
C 21.47  0.00 50.86                                                             
C  1.34 16.27  2.99                                                             
C  1.34 16.27 14.96                                                             
C  1.34 16.27 26.92                                                             
C  1.34 16.27 38.89                                                             
C  1.34 16.27 50.86                                                             
C  5.37 13.95  2.99                                                             
C  5.37 13.95 14.96                                                             
C  5.37 13.95 26.92                                                             
C  5.37 13.95 38.89                                                             
C  5.37 13.95 50.86                                                             
C  9.39 11.62  2.99                                                             
C  9.39 11.62 14.96                                                             
C  9.39 11.62 26.92                                                             
C  9.39 11.62 38.89                                                             
C  9.39 11.62 50.86                                                             
C 13.42  9.30  2.99                                                             
C 13.42  9.30 14.96                                                             
C 13.42  9.30 26.92                                                             
C 13.42  9.30 38.89                                                             
C 13.42  9.30 50.86                                                             
C 17.45  6.97  2.99                                                             
C 17.45  6.97 14.96                                                             
C 17.45  6.97 26.92                                                             
C 17.45  6.97 38.89                                                             
C 17.45  6.97 50.86                                                             
C 21.47  4.65  2.99                                                             
C 21.47  4.65 14.96                                                             
C 21.47  4.65 26.92                                                             
C 21.47  4.65 38.89                                                             
C 21.47  4.65 50.86                                                             
C 25.50  2.32  2.99                                                             
C 25.50  2.32 14.96                                                             
C 25.50  2.32 26.92                                                             
C 25.50  2.32 38.89                                                             
C 25.50  2.32 50.86                                                             
C 29.52  0.00  2.99                                                             
C 29.52  0.00 14.96                                                             
C 29.52  0.00 26.92                                                             
C 29.52  0.00 38.89                                                             
C 29.52  0.00 50.86                                                             
C  9.39 16.27  2.99                                                             
C  9.39 16.27 14.96                                                             
C  9.39 16.27 26.92                                                             
C  9.39 16.27 38.89                                                             
C  9.39 16.27 50.86                                                             
C 13.42 13.95  2.99                                                             
C 13.42 13.95 14.96                                                             
C 13.42 13.95 26.92                                                             
C 13.42 13.95 38.89                                                             
C 13.42 13.95 50.86                                                             
C 17.45 11.62  2.99                                                             
C 17.45 11.62 14.96                                                             
C 17.45 11.62 26.92                                                             
C 17.45 11.62 38.89                                                             
C 17.45 11.62 50.86                                                             
C 21.47  9.30  2.99                                                             
C 21.47  9.30 14.96                                                             
C 21.47  9.30 26.92                                                             
C 21.47  9.30 38.89                                                             
C 21.47  9.30 50.86                                                             
C 25.50  6.97  2.99                                                             
C 25.50  6.97 14.96                                                             
C 25.50  6.97 26.92                                                             
C 25.50  6.97 38.89                                                             
C 25.50  6.97 50.86                                                             
C 29.52  4.65  2.99                                                             
C 29.52  4.65 14.96                                                             
C 29.52  4.65 26.92                                                             
C 29.52  4.65 38.89                                                             
C 29.52  4.65 50.86                                                             
C 17.45 16.27  2.99                                                             
C 17.45 16.27 14.96                                                             
C 17.45 16.27 26.92                                                             
C 17.45 16.27 38.89                                                             
C 17.45 16.27 50.86                                                             
C 21.47 13.95  2.99                                                             
C 21.47 13.95 14.96                                                             
C 21.47 13.95 26.92                                                             
C 21.47 13.95 38.89                                                             
C 21.47 13.95 50.86                                                             
C 25.50 11.62  2.99                                                             
C 25.50 11.62 14.96                                                             
C 25.50 11.62 26.92                                                             
C 25.50 11.62 38.89                                                             
C 25.50 11.62 50.86                                                             
C 29.52  9.30  2.99                                                             
C 29.52  9.30 14.96                                                             
C 29.52  9.30 26.92                                                             
C 29.52  9.30 38.89                                                             
C 29.52  9.30 50.86                                                             
C 25.50 16.27  2.99                                                             
C 25.50 16.27 14.96                                                             
C 25.50 16.27 26.92                                                             
C 25.50 16.27 38.89                                                             
C 25.50 16.27 50.86                                                             
C 29.52 13.95  2.99                                                             
C 29.52 13.95 14.96                                                             
C 29.52 13.95 26.92                                                             
C 29.52 13.95 38.89                                                             
C 29.52 13.95 50.86                                                             
C  2.68  0.00  8.97                                                             
C  2.68  0.00 20.94                                                             
C  2.68  0.00 32.91                                                             
C  2.68  0.00 44.87                                                             
C  2.68  0.00 56.84                                                             
C  2.68  4.65  8.97                                                             
C  2.68  4.65 20.94                                                             
C  2.68  4.65 32.91                                                             
C  2.68  4.65 44.87                                                             
C  2.68  4.65 56.84                                                             
C  6.71  2.32  8.97                                                             
C  6.71  2.32 20.94                                                             
C  6.71  2.32 32.91                                                             
C  6.71  2.32 44.87                                                             
C  6.71  2.32 56.84                                                             
C 10.74  0.00  8.97                                                             
C 10.74  0.00 20.94                                                             
C 10.74  0.00 32.91                                                             
C 10.74  0.00 44.87                                                             
C 10.74  0.00 56.84                                                             
C  2.68  9.30  8.97                                                             
C  2.68  9.30 20.94                                                             
C  2.68  9.30 32.91                                                             
C  2.68  9.30 44.87                                                             
C  2.68  9.30 56.84                                                             
C  6.71  6.97  8.97                                                             
C  6.71  6.97 20.94                                                             
C  6.71  6.97 32.91                                                             
C  6.71  6.97 44.87                                                             
C  6.71  6.97 56.84                                                             
C 10.74  4.65  8.97                                                             
C 10.74  4.65 20.94                                                             
C 10.74  4.65 32.91                                                             
C 10.74  4.65 44.87                                                             
C 10.74  4.65 56.84                                                             
C 14.76  2.32  8.97                                                             
C 14.76  2.32 20.94                                                             
C 14.76  2.32 32.91                                                             
C 14.76  2.32 44.87                                                             
C 14.76  2.32 56.84                                                             
C 18.79  0.00  8.97                                                             
C 18.79  0.00 20.94                                                             
C 18.79  0.00 32.91                                                             
C 18.79  0.00 44.87                                                             
C 18.79  0.00 56.84                                                             
C  2.68 13.95  8.97                                                             
C  2.68 13.95 20.94                                                             
C  2.68 13.95 32.91                                                             
C  2.68 13.95 44.87                                                             
C  2.68 13.95 56.84                                                             
C  6.71 11.62  8.97                                                             
C  6.71 11.62 20.94                                                             
C  6.71 11.62 32.91                                                             
C  6.71 11.62 44.87                                                             
C  6.71 11.62 56.84                                                             
C 10.74  9.30  8.97                                                             
C 10.74  9.30 20.94                                                             
C 10.74  9.30 32.91                                                             
C 10.74  9.30 44.87                                                             
C 10.74  9.30 56.84                                                             
C 14.76  6.97  8.97                                                             
C 14.76  6.97 20.94                                                             
C 14.76  6.97 32.91                                                             
C 14.76  6.97 44.87                                                             
C 14.76  6.97 56.84                                                             
C 18.79  4.65  8.97                                                             
C 18.79  4.65 20.94                                                             
C 18.79  4.65 32.91                                                             
C 18.79  4.65 44.87                                                             
C 18.79  4.65 56.84                                                             
C 22.81  2.32  8.97                                                             
C 22.81  2.32 20.94                                                             
C 22.81  2.32 32.91                                                             
C 22.81  2.32 44.87                                                             
C 22.81  2.32 56.84                                                             
C 26.84  0.00  8.97                                                             
C 26.84  0.00 20.94                                                             
C 26.84  0.00 32.91                                                             
C 26.84  0.00 44.87                                                             
C 26.84  0.00 56.84                                                             
C  6.71 16.27  8.97                                                             
C  6.71 16.27 20.94                                                             
C  6.71 16.27 32.91                                                             
C  6.71 16.27 44.87                                                             
C  6.71 16.27 56.84                                                             
C 10.74 13.95  8.97                                                             
C 10.74 13.95 20.94                                                             
C 10.74 13.95 32.91                                                             
C 10.74 13.95 44.87                                                             
C 10.74 13.95 56.84                                                             
C 14.76 11.62  8.97                                                             
C 14.76 11.62 20.94                                                             
C 14.76 11.62 32.91                                                             
C 14.76 11.62 44.87                                                             
C 14.76 11.62 56.84                                                             
C 18.79  9.30  8.97                                                             
C 18.79  9.30 20.94                                                             
C 18.79  9.30 32.91                                                             
C 18.79  9.30 44.87                                                             
C 18.79  9.30 56.84                                                             
C 22.81  6.97  8.97                                                             
C 22.81  6.97 20.94                                                             
C 22.81  6.97 32.91                                                             
C 22.81  6.97 44.87                                                             
C 22.81  6.97 56.84                                                             
C 26.84  4.65  8.97                                                             
C 26.84  4.65 20.94                                                             
C 26.84  4.65 32.91                                                             
C 26.84  4.65 44.87                                                             
C 26.84  4.65 56.84                                                             
C 30.86  2.32  8.97                                                             
C 30.86  2.32 20.94                                                             
C 30.86  2.32 32.91                                                             
C 30.86  2.32 44.87                                                             
C 30.86  2.32 56.84                                                             
C 14.76 16.27  8.97                                                             
C 14.76 16.27 20.94                                                             
C 14.76 16.27 32.91                                                             
C 14.76 16.27 44.87                                                             
C 14.76 16.27 56.84                                                             
C 18.79 13.95  8.97                                                             
C 18.79 13.95 20.94                                                             
C 18.79 13.95 32.91                                                             
C 18.79 13.95 44.87                                                             
C 18.79 13.95 56.84                                                             
C 22.81 11.62  8.97                                                             
C 22.81 11.62 20.94                                                             
C 22.81 11.62 32.91                                                             
C 22.81 11.62 44.87                                                             
C 22.81 11.62 56.84                                                             
C 26.84  9.30  8.97                                                             
C 26.84  9.30 20.94                                                             
C 26.84  9.30 32.91                                                             
C 26.84  9.30 44.87                                                             
C 26.84  9.30 56.84                                                             
C 30.86  6.97  8.97                                                             
C 30.86  6.97 20.94                                                             
C 30.86  6.97 32.91                                                             
C 30.86  6.97 44.87                                                             
C 30.86  6.97 56.84                                                             
C 22.81 16.27  8.97                                                             
C 22.81 16.27 20.94                                                             
C 22.81 16.27 32.91                                                             
C 22.81 16.27 44.87                                                             
C 22.81 16.27 56.84                                                             
C 26.84 13.95  8.97                                                             
C 26.84 13.95 20.94                                                             
C 26.84 13.95 32.91                                                             
C 26.84 13.95 44.87                                                             
C 26.84 13.95 56.84                                                             
C 30.86 11.62  8.97                                                             
C 30.86 11.62 20.94                                                             
C 30.86 11.62 32.91                                                             
C 30.86 11.62 44.87                                                             
C 30.86 11.62 56.84                                                             
C 30.86 16.27  8.97                                                             
C 30.86 16.27 20.94                                                             
C 30.86 16.27 32.91                                                             
C 30.86 16.27 44.87                                                             
C 30.86 16.27 56.84                                                             
%ENDBLOCK POSITIONS_ABS                                                         

--------------------------------------------------------------------------------
-------------------------------- END INPUT FILE --------------------------------
--------------------------------------------------------------------------------


 
<<<<<<<<<<<<<<<<<<<<<<<<<<<<<<<<< Full system >>>>>>>>>>>>>>>>>>>>>>>>>>>>>>>>>>
<<<<<<<<<<<<<<<<<<<<<<<<<<< PAW Dataset information >>>>>>>>>>>>>>>>>>>>>>>>>>>
File: ~/pp/paw/c_pbe_abinit.paw; rc = 1.25 bohr; shape type =  3; rshape = 1.25 bohr;
  Atomic number:  6;  ionic charge:  4.000000
    Partial Wave 1: l = 0
    Partial Wave 2: l = 0
    Partial Wave 3: l = 1
    Partial Wave 4: l = 1
  Core charge supplied for Nonlinear Core Corrections
<<<<<<<<<<<<<<<<<<<<<<<<<<<<<<<<<<<<<<< >>>>>>>>>>>>>>>>>>>>>>>>>>>>>>>>>>>>>>>

-------------------------- Atom counting information ---------------------------
Symbol    Natoms    Nngwfs    Nprojs
  C        640      2560      5120
.......   ......    ......    ......
Totals:    640      2560      5120
--------------------------------------------------------------------------------

=============================== PSINC grid sizes ===============================
                      Simulation cell:   63 x  35 x 118
                              FFT-box:   63 x  35 x 117
                                  PPD:    7 x   5 x   1
Grid space d1=  0.511269841270a0 (KE cutoff=  29.06054Eh = 790.77748eV)
Grid space d2=  0.531142857143a0 (KE cutoff=  26.92659Eh = 732.70972eV)
Grid space d3=  0.507033898305a0 (KE cutoff=  29.54813Eh = 804.04555eV)
================================================================================
  
WARNING in cell_grid_distribute:
Average of less than one 23-slab per node, so workload cannot be
equally balanced between nodes.

********************* Fourier parallelisation information **********************
       Coarse grid (whole simulation cell) dimensions:     63    35   118
          Real-space ('12') slabs/node (min max mean):      2     3     2
         Recip-space ('23') slabs/node (min max mean):      0     1     0
********************************************************************************

********************* Fourier parallelisation information **********************
       Double grid (whole simulation cell) dimensions:    126    70   236
          Real-space ('12') slabs/node (min max mean):      5     6     5
         Recip-space ('23') slabs/node (min max mean):      1     2     1
********************************************************************************

Atom SCF Calculation for C  : Z (AE atom) =   6 : Z (PS atom) =   4
Config String: 2s2 2p2
Orbitals (num,occ):  2     2.00 2.00
Orbitals   (num,l):  2        0    1
Real-space Grid (nr,dr,rmax): 1293    0.0069659443    9.0000000000
Spherical Bessel Basis (nsws,lmax,cutoff):   37    2  161.4736382572
Confining potential (l,width,scale):  0    3.0000000000  100.0000000000
Confining potential (l,width,scale):  1    3.0000000000  100.0000000000
  1         -5.4283124456   -1.2935102156    4.5135257941   -1.5923561795
  2         -5.4241534249   -1.3636937911    4.4427183619   -1.5694122055
  3         -5.4326289545   -1.3865748334    4.4195613881   -1.5634604620
  4         -5.4368073263   -1.3933479911    4.4127833993   -1.5619680687
  5         -5.4388652800   -1.3969668505    4.4091714945   -1.5612108736
  6         -5.4399077146   -1.3988848872    4.4072644158   -1.5608235486
  7         -5.4404434041   -1.3998980658    4.4062615348   -1.5606243010
  8         -5.4407208401   -1.4004325328    4.4057350952   -1.5605214507
  9         -5.4408651553   -1.4007143559    4.4054589454   -1.5604682523
 10         -5.4409404127   -1.4008629743    4.4053141024   -1.5604407028
 11         -5.4409797152   -1.4009413770    4.4052381126   -1.5604264250
 12         -5.4410002582   -1.4009827603    4.4051982277   -1.5604190215
 13         -5.4410110012   -1.4010046176    4.4051772812   -1.5604151811
 14         -5.4410166211   -1.4010161701    4.4051662735   -1.5604131883
 15         -5.4410195614   -1.4010222805    4.4051604845   -1.5604121539
 16         -5.4410211001   -1.4010255150    4.4051574379   -1.5604116169
 17         -5.4410219052   -1.4010272285    4.4051558332   -1.5604113379
 18         -5.4410223266   -1.4010281369    4.4051549874   -1.5604111930
 19         -5.4410225472   -1.4010286190    4.4051545411   -1.5604111177
 20         -5.4410226626   -1.4010288749    4.4051543055   -1.5604110786
 21         -5.4410227231   -1.4010290110    4.4051541810   -1.5604110582
Atom SCF converged after  21 iterations to a total energy of     -5.44102272

Determining parallel strategy ...
... using space-filling curve
... NGWF load balancing: max     64;  min     64;  average     64
... Projector load balancing: max    128;  min    128;  average    128
... done
Calculating Ewald energy ...
              Ewald: real-space energy =    9534.921797
        Ewald: reciprocal-space energy =       0.038880
         Ewald: (sum_charge)**2 Energy =   11534.361834
         Ewald: (sum_charge**2) Energy =     911.871369
                          Ewald Energy =   -2911.272526
Basis initialisation ...... NGWF spheres initialised
... Projector spheres initialised
... NGWF tight boxes initialised
... Projector tight boxes initialised
... Tight-boxes gathered
... NGWF basis size (local,global):     694868  27907776
... PAW projector initialisation
... done

============================= Charge Augmentation ==============================
                           Aug box size:   11 x  11 x  11
================================================================================

========================== Sparse matrix information ===========================
                        Overlap matrix filling:  44.84%
                        Density kernel filling: 100.00%
              NGWF-Proj overlap matrix filling:  13.12%
                    Aug Overlap matrix filling:  47.97%
                    Hamiltonian matrix filling:  47.97%
                  NGWF diagonal matrix filling:   0.16%
                             KS matrix filling: 100.00% 
                           KSKS matrix filling: 100.00% 
================================================================================

Sparse matrix initialisation ... done
NGWF initialisation ...... done
============ Calculation of NGWF S^-1 using Hotelling algorithm ================ 
         Iteration  |  Frobenius norm and Maximum abs value    (of I-S*S_n^-1)   
               1       0.49245607E+02     0.97838565E+00
               2       0.48144461E+02     0.95854077E+00
               3       0.46454219E+02     0.92318748E+00
               4       0.44204980E+02     0.86507582E+00
               5       0.41469203E+02     0.77833107E+00
               6       0.38221161E+02     0.69168290E+00
               7       0.34712348E+02     0.64123618E+00
               8       0.31343040E+02     0.59958303E+00
               9       0.27899536E+02     0.55842014E+00
              10       0.23676325E+02     0.49749811E+00
              11       0.18144749E+02     0.39858758E+00
              12       0.11488705E+02     0.26039150E+00
              13       0.51980535E+01     0.11698236E+00
              14       0.12649656E+01     0.26554325E-01
              15       0.89040624E-01     0.16547402E-02
              16       0.54270003E-03     0.80892381E-05
              17       0.29465718E-07     0.28063130E-09
              18       0.84037203E-13     0.42188475E-14
================================================================================
Calculating core density ...
================================= Core Density =================================
               Core den box size:   21 x  21 x  21
================================================================================
 ... done
Up spin density kernel initialisation ...... done

Writing density kernel to file "3.1661816_GO_manual_4x64graphite.dkn" ... done

>>> Optimising kernel for current NGWFs:

--------------------------- Ensemble-DFT optimisation --------------------------
Running ScaLAPACK on   40 processor(s).

--------------------------------------------------------------------------------
  Iter                              Commutator    Free_energy(A=E-TS)     DeltaA
#    0                          0.000047303472   -3653.18896314738458  -3.65E+03

Step                       =       0.381966011250
Energy                     =   -3653.188920001448
Entropy (-TS)              =      -0.000043146227
Free energy (A=E-TS)       =   -3653.188963147385
Est. 0K Energy 0.5*(E+A)   =   -3653.188941574416
Residual Non-orthogonality =       0.000000000000
Residual N_electrons       =       0.000000000290

Spin          Integrated_Ne            Fermi_level     Delta_Fermi_level
   1      2559.999999998809         0.243206321965              2.43E-01

                           Spin 1          
     Orb      H-eigenvalues     Occupancies
       1 |    -0.4804526877    1.0000000000 | 
                          ------
    1276 |     0.2106592710    0.9999656044 | 
    1277 |     0.2112538080    0.9999585013 | 
    1278 |     0.2112703399    0.9999582841 | 
    1279 |     0.2116281581    0.9999532942 | 
    1280 |     0.2122252197    0.9999436042 | 
                 - Gap at zero temperature -
    1281 |     0.2764884616    0.0000272707 | 
    1282 |     0.2764920073    0.0000272402 | 
    1283 |     0.2766217632    0.0000261467 | 
    1284 |     0.2767180392    0.0000253638 | 
    1285 |     0.2767215326    0.0000253358 | 
                          ------
    2560 |     1.0758793383    0.0000000000 | 

                       |  Abs_value |  Threshold | Converged
     Delta_Free_energy |   3.65E+03 |   1.00E-06 |        No
     Delta_Energy      |   3.65E+03 |   1.00E-04 |        No
     Delta_Entropy     |   4.31E-05 |   1.00E-04 |       Yes
     Commutator        |   4.73E-05 |   1.00E-05 |        No
     Delta_Fermi_level |   2.43E-01 |   1.00E-03 |        No

  Line search of the free energy minimum:
  Step_type        Step             Free_energy   Predicted_free_energy
.   Initial    0.000000    -3653.18896314738458
.    Trial1    0.381966    -3653.19122178996577
.    Trial2    0.618034    -3653.19064106504766
. Quadratic    0.409213    -3653.19123149860070    -3653.19123184791306

--------------------------------------------------------------------------------
  Iter                              Commutator    Free_energy(A=E-TS)     DeltaA
#    1                          0.000020397515   -3653.19123149860070  -2.27E-03

Step                       =       0.409212798288
Energy                     =   -3653.191189274336
Entropy (-TS)              =      -0.000042223934
Free energy (A=E-TS)       =   -3653.191231498601
Est. 0K Energy 0.5*(E+A)   =   -3653.191210386468
Residual Non-orthogonality =       0.000000000000
Residual N_electrons       =      -0.000000000332

Spin          Integrated_Ne            Fermi_level     Delta_Fermi_level
   1      2560.000000001352         0.245271552184              2.07E-03

                           Spin 1          
     Orb      H-eigenvalues     Occupancies
       1 |    -0.4789663917    1.0000000000 | 
                          ------
    1276 |     0.2127194782    0.9999656589 | 
    1277 |     0.2131951346    0.9999600935 | 
    1278 |     0.2132159702    0.9999598301 | 
    1279 |     0.2137077977    0.9999530812 | 
    1280 |     0.2141906774    0.9999453532 | 
                 - Gap at zero temperature -
    1281 |     0.2786073601    0.0000268125 | 
    1282 |     0.2786447270    0.0000264980 | 
    1283 |     0.2787810143    0.0000253818 | 
    1284 |     0.2788983130    0.0000244589 | 
    1285 |     0.2789239658    0.0000242616 | 
                          ------
    2560 |     1.0794495430    0.0000000000 | 

                       |  Abs_value |  Threshold | Converged
     Delta_Free_energy |   2.27E-03 |   1.00E-06 |        No
     Delta_Energy      |   2.27E-03 |   1.00E-04 |        No
     Delta_Entropy     |   9.22E-07 |   1.00E-04 |       Yes
     Commutator        |   2.04E-05 |   1.00E-05 |        No
     Delta_Fermi_level |   2.07E-03 |   1.00E-03 |        No

  Line search of the free energy minimum:
  Step_type        Step             Free_energy   Predicted_free_energy
.   Initial    0.000000    -3653.19123149860070
.    Trial1    0.409213    -3653.19156001373949
.    Trial2    0.634873    -3653.19119229130911
. Quadratic    0.309377    -3653.19159851708855    -3653.19159820006325

--------------------------------------------------------------------------------
  Iter                              Commutator    Free_energy(A=E-TS)     DeltaA
#    2                          0.000014223878   -3653.19159851708855  -3.67E-04

Step                       =       0.309377115765
Energy                     =   -3653.191556869504
Entropy (-TS)              =      -0.000041648205
Free energy (A=E-TS)       =   -3653.191598517089
Est. 0K Energy 0.5*(E+A)   =   -3653.191577693296
Residual Non-orthogonality =       0.000000000000
Residual N_electrons       =       0.000000000620

Spin          Integrated_Ne            Fermi_level     Delta_Fermi_level
   1      2559.999999997480         0.246132402615              8.61E-04

                           Spin 1          
     Orb      H-eigenvalues     Occupancies
       1 |    -0.4783133737    1.0000000000 | 
                          ------
    1276 |     0.2135266695    0.9999662358 | 
    1277 |     0.2140165626    0.9999605872 | 
    1278 |     0.2140470513    0.9999602059 | 
    1279 |     0.2145031862    0.9999540411 | 
    1280 |     0.2150097856    0.9999460687 | 
                 - Gap at zero temperature -
    1281 |     0.2795145423    0.0000264231 | 
    1282 |     0.2795614715    0.0000260344 | 
    1283 |     0.2796907779    0.0000249928 | 
    1284 |     0.2798160134    0.0000240238 | 
    1285 |     0.2798291600    0.0000239242 | 
                          ------
    2560 |     1.0810233598    0.0000000000 | 

                       |  Abs_value |  Threshold | Converged
     Delta_Free_energy |   3.67E-04 |   1.00E-06 |        No
     Delta_Energy      |   3.68E-04 |   1.00E-04 |        No
     Delta_Entropy     |   5.76E-07 |   1.00E-04 |       Yes
     Commutator        |   1.42E-05 |   1.00E-05 |        No
     Delta_Fermi_level |   8.61E-04 |   1.00E-03 |       Yes

  Line search of the free energy minimum:
  Step_type        Step             Free_energy   Predicted_free_energy
.   Initial    0.000000    -3653.19159851708855
.    Trial1    0.309377    -3653.19175140142079
.    Trial2    0.573172    -3653.19151704254909
. Quadratic    0.257121    -3653.19175804212273    -3653.19175798827109

--------------------------------------------------------------------------------
  Iter                              Commutator    Free_energy(A=E-TS)     DeltaA
#    3                          0.000009917738   -3653.19175804212273  -1.60E-04

Step                       =       0.257121178364
Energy                     =   -3653.191716708772
Entropy (-TS)              =      -0.000041332837
Free energy (A=E-TS)       =   -3653.191758042123
Est. 0K Energy 0.5*(E+A)   =   -3653.191737375448
Residual Non-orthogonality =       0.000000000000
Residual N_electrons       =      -0.000000000513

Spin          Integrated_Ne            Fermi_level     Delta_Fermi_level
   1      2560.000000002079         0.246628339864              4.96E-04

                           Spin 1          
     Orb      H-eigenvalues     Occupancies
       1 |    -0.4779349783    1.0000000000 | 
                          ------
    1276 |     0.2139978917    0.9999664983 | 
    1277 |     0.2144865591    0.9999609087 | 
    1278 |     0.2145213592    0.9999604768 | 
    1279 |     0.2149701778    0.9999544592 | 
    1280 |     0.2154798440    0.9999465076 | 
                 - Gap at zero temperature -
    1281 |     0.2800348385    0.0000262206 | 
    1282 |     0.2800858941    0.0000258013 | 
    1283 |     0.2802129917    0.0000247863 | 
    1284 |     0.2803371449    0.0000238334 | 
    1285 |     0.2803477497    0.0000237537 | 
                          ------
    2560 |     1.0819341569    0.0000000000 | 

                       |  Abs_value |  Threshold | Converged
     Delta_Free_energy |   1.60E-04 |   1.00E-06 |        No
     Delta_Energy      |   1.60E-04 |   1.00E-04 |        No
     Delta_Entropy     |   3.15E-07 |   1.00E-04 |       Yes
     Commutator        |   9.92E-06 |   1.00E-05 |       Yes
     Delta_Fermi_level |   4.96E-04 |   1.00E-03 |       Yes

  Line search of the free energy minimum:
  Step_type        Step             Free_energy   Predicted_free_energy
.   Initial    0.000000    -3653.19175804212273
.    Trial1    0.257121    -3653.19183541656048
.    Trial2    0.540876    -3653.19176844706408
. Quadratic    0.280127    -3653.19183593612752    -3653.19183594197375

--------------------------------------------------------------------------------
  Iter                              Commutator    Free_energy(A=E-TS)     DeltaA
#    4                          0.000007411297   -3653.19183593612752  -7.79E-05

Step                       =       0.280126963591
Energy                     =   -3653.191794854000
Entropy (-TS)              =      -0.000041082733
Free energy (A=E-TS)       =   -3653.191835936128
[...]
 C   275 -- C   555       -0.10      5.37000
 C   274 -- C   554       -0.10      5.37000
 C   273 -- C   553       -0.10      5.37000
 C   272 -- C   552       -0.10      5.37000
 C   271 -- C   551       -0.10      5.37000
 C   270 -- C   550       -0.10      5.37000
 C   269 -- C   549       -0.10      5.37000
 C   268 -- C   548       -0.10      5.37000
 C   267 -- C   547       -0.10      5.37000
 C   266 -- C   546       -0.10      5.37000
 C   130 -- C   465       -0.09      5.37000
 C   129 -- C   464       -0.09      5.37000
 C   128 -- C   463       -0.09      5.37000
 C   127 -- C   462       -0.09      5.37000
 C   126 -- C   461       -0.09      5.37000
 C   240 -- C   525       -0.10      5.37000
 C   239 -- C   524       -0.10      5.37000
 C   238 -- C   523       -0.10      5.37000
 C   237 -- C   522       -0.10      5.37000
 C   236 -- C   521       -0.10      5.37000
 C    23 -- C   478       -0.09      5.37202
 C    49 -- C   469       -0.09      5.37202
 C    48 -- C   468       -0.09      5.37202
 C    47 -- C   467       -0.09      5.37202
 C    22 -- C   477       -0.09      5.37202
 C    46 -- C   466       -0.09      5.37202
 C    21 -- C   476       -0.09      5.37202
 C    25 -- C   480       -0.09      5.37202
 C    24 -- C   479       -0.09      5.37202
 C    50 -- C   470       -0.09      5.37202
 C    24 -- C   449       -0.09      5.37202
 C     6 -- C   416       -0.09      5.37202
 C    23 -- C   448       -0.09      5.37202
 C    22 -- C   447       -0.09      5.37202
 C    10 -- C   470       -0.09      5.37202
 C     5 -- C   450       -0.09      5.37202
 C    21 -- C   446       -0.09      5.37202
 C    10 -- C   420       -0.09      5.37202
 C     9 -- C   469       -0.09      5.37202
 C     9 -- C   419       -0.09      5.37202
 C     8 -- C   468       -0.09      5.37202
 C     4 -- C   449       -0.09      5.37202
 C     8 -- C   418       -0.09      5.37202
 C   285 -- C   580       -0.09      5.37202
 C   284 -- C   579       -0.09      5.37202
 C   283 -- C   578       -0.09      5.37202
 C   282 -- C   577       -0.09      5.37202
 C   281 -- C   576       -0.09      5.37202
 C     2 -- C   447       -0.09      5.37202
 C     7 -- C   467       -0.09      5.37202
 C   260 -- C   605       -0.09      5.37202
 C   259 -- C   604       -0.09      5.37202
 C   258 -- C   603       -0.09      5.37202
 C   257 -- C   602       -0.09      5.37202
 C   256 -- C   601       -0.09      5.37202
 C     7 -- C   417       -0.09      5.37202
 C     1 -- C   446       -0.09      5.37202
 C     6 -- C   466       -0.09      5.37202
 C    25 -- C   450       -0.09      5.37202
 C     3 -- C   448       -0.09      5.37202
 C   219 -- C   569       -0.09      5.37202
 C   218 -- C   568       -0.09      5.37202
 C   217 -- C   567       -0.09      5.37202
 C   216 -- C   566       -0.09      5.37202
 C   250 -- C   540       -0.09      5.37202
 C   249 -- C   539       -0.09      5.37202
 C   248 -- C   538       -0.09      5.37202
 C   247 -- C   537       -0.09      5.37202
 C   246 -- C   536       -0.09      5.37202
 C   220 -- C   570       -0.09      5.37202
 C   205 -- C   550       -0.09      5.37202
 C   204 -- C   549       -0.09      5.37202
 C   203 -- C   548       -0.09      5.37202
 C   202 -- C   547       -0.09      5.37202
 C   201 -- C   546       -0.09      5.37202
 C    95 -- C   365       -0.09      5.37202
 C    94 -- C   364       -0.09      5.37202
 C    93 -- C   363       -0.09      5.37202
 C    92 -- C   362       -0.09      5.37202
 C    91 -- C   361       -0.09      5.37202
 C    65 -- C   395       -0.09      5.37202
 C    64 -- C   394       -0.09      5.37202
 C    63 -- C   393       -0.09      5.37202
 C    30 -- C   355       -0.09      5.37202
 C    62 -- C   392       -0.09      5.37202
 C    61 -- C   391       -0.09      5.37202
 C    29 -- C   354       -0.09      5.37202
 C   260 -- C   550       -0.09      5.37202
 C   259 -- C   549       -0.09      5.37202
 C    28 -- C   353       -0.09      5.37202
 C   258 -- C   548       -0.09      5.37202
 C   257 -- C   547       -0.09      5.37202
 C   256 -- C   546       -0.09      5.37202
 C    27 -- C   352       -0.09      5.37202
 C    26 -- C   351       -0.09      5.37202
 C    55 -- C   335       -0.09      5.37202
 C    54 -- C   334       -0.09      5.37202
 C    53 -- C   333       -0.09      5.37202
 C   230 -- C   580       -0.09      5.37202
 C   230 -- C   525       -0.09      5.37202
 C   229 -- C   579       -0.09      5.37202
 C   229 -- C   524       -0.09      5.37202
 C   228 -- C   578       -0.09      5.37202
 C    52 -- C   332       -0.09      5.37202
 C   228 -- C   523       -0.09      5.37202
 C   227 -- C   577       -0.09      5.37202
 C   227 -- C   522       -0.09      5.37202
 C   226 -- C   576       -0.09      5.37202
 C   226 -- C   521       -0.09      5.37202
 C    51 -- C   331       -0.09      5.37202
 C   220 -- C   515       -0.09      5.37202
 C   219 -- C   514       -0.09      5.37202
 C   218 -- C   513       -0.09      5.37202
 C   217 -- C   512       -0.09      5.37202
 C   216 -- C   511       -0.09      5.37202
 C   195 -- C   540       -0.09      5.37202
 C   195 -- C   500       -0.09      5.37202
 C   194 -- C   539       -0.09      5.37202
 C   194 -- C   499       -0.09      5.37202
 C   193 -- C   538       -0.09      5.37202
 C   193 -- C   498       -0.09      5.37202
 C   192 -- C   537       -0.09      5.37202
 C   192 -- C   497       -0.09      5.37202
 C   191 -- C   536       -0.09      5.37202
 C   191 -- C   496       -0.09      5.37202
 C   180 -- C   515       -0.09      5.37202
 C   179 -- C   514       -0.09      5.37202
 C   178 -- C   513       -0.09      5.37202
 C   177 -- C   512       -0.09      5.37202
 C   176 -- C   511       -0.09      5.37202
 C   150 -- C   440       -0.09      5.37202
 C   149 -- C   439       -0.09      5.37202
 C   148 -- C   438       -0.09      5.37202
 C   147 -- C   437       -0.09      5.37202
 C   146 -- C   436       -0.09      5.37202
 C   135 -- C   460       -0.09      5.37202
 C   134 -- C   459       -0.09      5.37202
 C   133 -- C   458       -0.09      5.37202
 C   132 -- C   457       -0.09      5.37202
 C   131 -- C   456       -0.09      5.37202
 C    11 -- C   331       -0.09      5.37202
 C    95 -- C   425       -0.09      5.37202
 C    94 -- C   424       -0.09      5.37202
 C    93 -- C   423       -0.09      5.37202
 C    92 -- C   422       -0.09      5.37202
 C    91 -- C   421       -0.09      5.37202
 C    85 -- C   355       -0.09      5.37202
 C    40 -- C   365       -0.09      5.37202
 C    84 -- C   354       -0.09      5.37202
 C    83 -- C   353       -0.09      5.37202
 C    82 -- C   352       -0.09      5.37202
 C    39 -- C   364       -0.09      5.37202
 C    81 -- C   351       -0.09      5.37202
 C    38 -- C   363       -0.09      5.37202
 C    37 -- C   362       -0.09      5.37202
 C    36 -- C   361       -0.09      5.37202
 C    15 -- C   335       -0.09      5.37202
 C    65 -- C   345       -0.09      5.37202
 C    64 -- C   344       -0.09      5.37202
 C    63 -- C   343       -0.09      5.37202
 C    30 -- C   325       -0.09      5.37202
 C    62 -- C   342       -0.09      5.37202
 C    14 -- C   334       -0.09      5.37202
 C    61 -- C   341       -0.09      5.37202
 C    29 -- C   324       -0.09      5.37202
 C    28 -- C   323       -0.09      5.37202
 C    13 -- C   333       -0.09      5.37202
 C    27 -- C   322       -0.09      5.37202
 C   120 -- C   395       -0.09      5.37202
 C    55 -- C   385       -0.09      5.37202
 C   119 -- C   394       -0.09      5.37202
 C   118 -- C   393       -0.09      5.37202
 C   117 -- C   392       -0.09      5.37202
 C    54 -- C   384       -0.09      5.37202
 C    26 -- C   321       -0.09      5.37202
 C   116 -- C   391       -0.09      5.37202
 C    53 -- C   383       -0.09      5.37202
 C    12 -- C   332       -0.09      5.37202
 C    52 -- C   382       -0.09      5.37202
 C    51 -- C   381       -0.09      5.37202
 C   106 -- C   436       -0.09      5.37202
 C   106 -- C   376       -0.09      5.37202
 C    80 -- C   410       -0.09      5.37202
 C    79 -- C   409       -0.09      5.37202
 C    78 -- C   408       -0.09      5.37202
 C    77 -- C   407       -0.09      5.37202
 C    76 -- C   406       -0.09      5.37202
 C   135 -- C   410       -0.09      5.37202
 C   134 -- C   409       -0.09      5.37202
 C   133 -- C   408       -0.09      5.37202
 C   132 -- C   407       -0.09      5.37202
 C   131 -- C   406       -0.09      5.37202
 C   110 -- C   440       -0.09      5.37202
 C   110 -- C   380       -0.09      5.37202
 C   109 -- C   439       -0.09      5.37202
 C   109 -- C   379       -0.09      5.37202
 C   108 -- C   438       -0.09      5.37202
 C   108 -- C   378       -0.09      5.37202
 C   107 -- C   437       -0.09      5.37202
 C   107 -- C   377       -0.09      5.37202
 C   215 -- C   635       -0.10      5.38000
 C   214 -- C   634       -0.10      5.38000
 C   213 -- C   633       -0.10      5.38000
 C   212 -- C   632       -0.10      5.38000
 C   211 -- C   631       -0.10      5.38000
 C   190 -- C   620       -0.10      5.38000
 C   189 -- C   619       -0.10      5.38000
 C   188 -- C   618       -0.10      5.38000
 C   187 -- C   617       -0.10      5.38000
 C   186 -- C   616       -0.10      5.38000
 C   175 -- C   595       -0.10      5.38000
 C   174 -- C   594       -0.10      5.38000
 C   173 -- C   593       -0.10      5.38000
 C   172 -- C   592       -0.10      5.38000
 C   171 -- C   591       -0.10      5.38000
 C   245 -- C   640       -0.09      5.38000
 C   244 -- C   639       -0.09      5.38000
 C   243 -- C   638       -0.09      5.38000
 C   242 -- C   637       -0.09      5.38000
 C   241 -- C   636       -0.09      5.38000
==================================================


=================== Orbital energy and occupancy information ===================

      Total number of orbitals:    2560
        Occupancy sum (kernel):    1280.000000000
   Occupancy sum (eigenvalues):    1280.000000000
                 HOMO-LUMO gap:       0.000036368 Eh
                 Mid-gap level:       0.317022165 Eh

                        Orbital | Energy (Eh) | Occupancy
                            1    -0.440681523   1.0000000
                        .......   ...........   .........
                         1272     0.249940970   0.9999859
                         1273     0.250317194   0.9999841
                         1274     0.250410533   0.9999836
                         1275     0.254154907   0.9999466
                         1276     0.254164118   0.9999465
                         1277     0.254496167   0.9999405
                         1278     0.254590660   0.9999388
                         1279     0.254600035   0.9999386
                         1280     0.254911885   0.9999322
                         1281     0.317003982   0.0000449
                        ....... -- gap at 0K -- .........
                         1282     0.317040349   0.0000444
                         1283     0.317257335   0.0000414
                         1284     0.317294163   0.0000410
                         1285     0.318341634   0.0000296
                         1286     0.318356978   0.0000294
                         1287     0.318614640   0.0000271
                         1288     0.318629813   0.0000270
                         1289     0.319174092   0.0000228
                         1290     0.319325081   0.0000215
                         1291     0.319422725   0.0000208
                        .......   ...........   .........
                         2560     1.175340436   0.0000000

================================================================================

===================== Writing canonical molecular orbitals =====================
| Orbital  Energy (eV)  Norm     |
| HOMO      8.62611726  1.000000 | Writing "3.1661816_GO_manual_4x64graphite_HOMO.cube" ... done
Writing "3.1661816_GO_manual_4x64graphite_HOMO.dx" ... done
| LUMO      8.62710688  1.000000 | Writing "3.1661816_GO_manual_4x64graphite_LUMO.cube" ... done
Writing "3.1661816_GO_manual_4x64graphite_LUMO.dx" ... done
================================================================================
 
===================== Density of States (DOS) calculation ======================
Writing "3.1661816_GO_manual_4x64graphite_DOS.txt" ...  done
================================================================================
 
Writing bands to file "3.1661816_GO_manual_4x64graphite.val_bands" ... done
 
================ Projected Density of States (pDOS) calculation ================
 
Constructing AM resolved functions  ...... done
Writing NGWF plot files in formats: CUBE DX ...  done
 
Performing overlap integrals ...  done
 
Computing pDOS weights ...  done
 
All bands spilling parameter =   3.91 %
Occupancy-weighted spilling parameter =   0.82 %
 
 => Outputting data for OptaDOS <=
 
Writing pDOS weights to file "3.1661816_GO_manual_4x64graphite.val_pdos_bin" ... done
 
Writing band gradients to file "3.1661816_GO_manual_4x64graphite.val_dome_bin" ... done
 
Writing Castep output cell file to "3.1661816_GO_manual_4x64graphite-out.cell" ... done
 
 => Computing Gaussian smeared pDOS <= 
Writing "3.1661816_GO_manual_4x64graphite_PDOS.txt" ...  done
 
 => Computing Occupancy-weighted Gaussian smeared pDOS <= 
Writing "3.1661816_GO_manual_4x64graphite_occ_PDOS.txt" ...  done
  => Band centres: 
 S band centre of group 1:  -15.520946 eV
 P band centre of group 1:   -8.417603 eV
  Band centres done. <=
  => Integrated number of electrons in each AM band: 
 S num electrons of group 1:  574.525044
 P num electrons of group 1: 1964.436625
  Integrated number of electrons done. <=
================================================================================

------------------------------ TIMING INFORMATION ------------------------------
AVERAGE TIME:    4616.887s on     40 node(s)                                    
TOTAL TIME:      4616.888s on     40 node(s)                                    
================= AVERAGE TIMINGS FROM ALL NODES (CUMULATIVE) ==================
|| TAG                                    #calls    cpu time   %total  Gflops ||
|| work_imbalance                       :     1        0.00s   0.000%  ------ ||
|| paw_tcore_hartree_on_grid            :     1        0.01s   0.000%  ------ ||
|| paw_tcore_density                    :     1        0.01s   0.000%  ------ ||
|| paw_sphere_density_on_grid           :     1        0.01s   0.000%  ------ ||
|| sparse_set_to_garbage                :   183        0.03s   0.001%  ------ ||
|| pseudo_make_structure_factor         :     1        0.05s   0.001%  ------ ||
|| paw_dij_hartree                      :   410        0.05s   0.001%  ------ ||
|| basis_extract_function_from_box      :  2048        0.09s   0.002%  ------ ||
|| paw_species_calc_proj_prec_mat       :     1        0.12s   0.003%  ------ ||
|| density_init_guess_real              :     1        0.20s   0.004%  ------ ||
|| paw_dataset_init                     :     1        0.25s   0.005%  ------ ||
|| ngwfs_initialise_from_radial         :     2        0.67s   0.014%  ------ ||
|| restart_kernel_write                 :    17        0.89s   0.019%  ------ ||
|| sparse_init                          :     1        0.98s   0.021%  ------ ||
|| dense_normal_eigensolve              :     1        1.08s   0.023%  ------ ||
|| hartree_on_grid                      :   307        1.72s   0.037%  ------ ||
|| ewald_calculate_energy               :     1        2.30s   0.050%  ------ ||
|| projectors_init_fftbox_recip         :   161        3.12s   0.068%  ------ ||
|| fourier_apply_box_pair               :  3040        5.03s   0.109% 560.341 ||
|| basis_copy_function_to_box           : 28992        6.23s   0.135%  ------ ||
|| sw_init                              :     1        6.73s   0.146%  ------ ||
|| augmentation_screen_dij              :   314        6.77s   0.147%  ------ ||
|| sparse_embed_hotelling_invert_embed  :    31        9.14s   0.198%  ------ ||
|| ngwf_gradient_coeffs                 :    16       12.78s   0.277%  ------ ||
|| cell_grid_extract_box_real           : 12332       17.31s   0.375%  ------ ||
|| sparse_trace                         :  3728       21.78s   0.472%  ------ ||
|| fourier_apply_cell_backward          :  9488       22.64s   0.490%  46.255 ||
|| fourier_apply_cell_forward           :  8875       24.04s   0.521%  40.745 ||
|| cell_grid_deposit_box_real           : 39472       27.20s   0.589%  ------ ||
|| paw_dij_xc                           :   410       29.37s   0.636%  ------ ||
|| aug_nonlocal_mat                     :   394       43.79s   0.949%  ------ ||
|| eigenstates_pdos                     :     1       54.54s   1.181%  ------ ||
|| density_fftbox_deposit_to_cell       : 19648       55.69s   1.206%  ------ ||
|| eigenstates_calculate                :     1       58.72s   1.272%  ------ ||
|| augmentation_density_on_grid         :   307       59.37s   1.286%  ------ ||
|| hamiltonian_energy_components        :     4       68.98s   1.494%  ------ ||
|| function_ops_brappd_ketppd           :    64       69.03s   1.495%  ------ ||
|| projectors_func_ovlp_box             :    32       77.93s   1.688%  ------ ||
|| xc_energy_potential                  :   306       96.58s   2.092%  ------ ||
|| nlxc_vdw_energy                      :   612       99.10s   2.147%  ------ ||
|| properties_calculate                 :     1      104.64s   2.266%  ------ ||
|| integrals_kinetic                    :    31      119.40s   2.586%  ------ ||
|| restart_ngwfs_tightbox_output        :    15      123.84s   2.682%  ------ ||
|| dense_eigensolve                     :   271      133.21s   2.885%  ------ ||
|| potential_apply_to_ngwf_batch        :   392      154.98s   3.357%  ------ ||
|| sparse_product                       :  3704      165.84s   3.592%  ------ ||
|| basis_dot_function_with_box          : 9.716M     262.33s   5.682%  ------ ||
|| fourier_apply_box                    : 90832      283.56s   6.142% 979.153 ||
|| projectors_gradient_batch            :    64      296.57s   6.424%  ------ ||
|| edft_diag_ngwf_ham                   :   270      299.39s   6.485%  ------ ||
|| integrals_locpot_mat_els_batch       :   392      376.78s   8.161%  ------ ||
|| density_fftbox_interpolate_multiply  : 19648      380.58s   8.243%  ------ ||
|| projectors_grad_precond_batch        :    64      441.54s   9.564%  ------ ||
|| density_batch_interp_deposit         :  1228      485.55s  10.517%  ------ ||
|| integrals_locpot_dbl_grid            :    98      533.82s  11.562%  ------ ||
|| edft_apply_smearing_operator         :   270      586.20s  12.697%  ------ ||
|| basis_add_function_to_box            : 27.26M     706.26s  15.297%  ------ ||
|| ngwf_gradient_build_batch            :    64      786.68s  17.039%  ------ ||
|| ngwf_gradient_batch                  :    64     1046.47s  22.666%  ------ ||
|| density_batch_row_sums               :  1228     1075.63s  23.298%  ------ ||
|| ngwf_gradient_lnv                    :    16     1088.05s  23.567%  ------ ||
|| density_on_dbl_grid                  :   307     1575.99s  34.135%  ------ ||
|| hamiltonian_lhxc_calculate           :   301     1709.40s  37.025%  ------ ||
|| edft_calculate                       :    16     2816.84s  61.012%  ------ ||
|| ngwf_cg_optimise                     :     1     4491.37s  97.281%  ------ ||
|| total_time                           :     1     4616.89s 100.000%  ------ ||
================================================================================
Overhead of generating timer report: 
- 0 ms averaging over threads,
- 6 ms ensuring consistency across MPI ranks,
- 0 ms printing in order.

Job completed: 21-02-2020 13:24 (-0000)

