 +---------------------------------------------------------------+
 |                                                               |
 |        ####### #     # ####### ####### ####### ######         |
 |        #     # ##    # #          #    #       #     #        |
 |        #     # # #   # #          #    #       #     #        |
 |        #     # #  #  # #####      #    #####   ######         |
 |        #     # #   # # #          #    #       #              |
 |        #     # #    ## #          #    #       #              |
 |        ####### #     # #######    #    ####### #              |
 |                                                               |
 |        Linear-Scaling Ab Initio Total Energy Program          |
 |                                                               |
 |          Release for academic collaborators of ODG            |
 |                                             Version 5.3.2.12  |
 |                                                               |
 +---------------------------------------------------------------+
 |                                                               |
 |  Authors:                                                     |
 |  Jacek Dziedzic, Peter D. Haynes, Nicholas D. M. Hine,        |
 |  Arash. A. Mostofi, Mike C. Payne and Chris-Kriton Skylaris   |
 |                                                               |
 |  Contributors:                                                |
 |  J. Aarons, L. Andrinopoulos, P. W. Avraam, R. A. Bell,       |
 |  A. Bhandari, G. A. Bramley, R. J. Charlton, S. J. Clark,     |
 |  R. J. Clements, G. C. Constantinescu, F. Corsetti,           |
 |  N. Corsini, O. Dieguez, S. M. M. Dubois, K. K. B. Duff,      |
 |  J. M. Escartin, A. Greco, H. Helal, Q. O. Hill, L. P. Lee,   |
 |  J.-H. Li, E. B. Linscott, G. Moynihan, D. D. O`Regan,        |
 |  O. K. Okan, M. J. S. Phipps, C. J. Pickard,                  |
 |  J. C. A. Prentice, M. I. J. Probert, L. E. Ratcliff,         |
 |  M. Robinson, A. Ruiz Serrano, J. S. Spencer, E. W. Tait,     |
 |  G. Teobaldi, D. Turban, V. Vitale, K. A. Wilkinson,          |
 |  C. Weber, J. C. Womack, N. Yeung and T. J. Zuehlsdorff       |
 |                                                               |
 |                                   Copyright (c) 2004-2020     |
 |                                                               |
 |  Please cite:                                                 |
 |  "Introducing ONETEP: Linear-scaling density functional       |
 |   simulations on parallel computers".                         |
 |   C.-K. Skylaris, P. D. Haynes, A. A. Mostofi, M. C. Payne.   |
 |   J. Chem. Phys. 122 084119 (2005).                           |
 |                                                               |
 |          in all publications arising from your use of ONETEP. |
 |                                                               |
 +---------------------------------------------------------------+
 |                                                               |
 |   ONETEP is based on developments described in the following  |
 |   publications:                                               |
 |                                                               |
 |  "Nonorthogonal generalized Wannier function pseudopotential  |
 |   plane-wave method".                                         |
 |   C.-K. Skylaris, A. A. Mostofi, P. D. Haynes, O. Dieguez,    |
 |   M. C. Payne.                                                |
 |   Phys. Rev. B 66 035119 (2002).                              |
 |                                                               |
 |  "Preconditioned iterative minimization for linear-scaling    |
 |   electronic structure calculations".                         |
 |   A. A. Mostofi, P. D. Haynes, C.-K. Skylaris, M. C. Payne.   |
 |   J. Chem. Phys. 119(17), pp.8842-8848 (2003).                |
 |                                                               |
 |  "Total-energy calculations on a real space grid with         |
 |   localized functions and a plane-wave basis".                |
 |   A. A. Mostofi, C.-K. Skylaris, P. D. Haynes, M. C. Payne.   |
 |   Comput. Phys. Commun. 147, pp.788-802 (2002).               |
 |                                                               |
 |  "Accurate kinetic energy evaluation in electronic structure  |
 |   calculations with localized functions on real space grids"  |
 |   C.-K. Skylaris, A. A. Mostofi, P. D. Haynes, C. J. Pickard, |
 |   M. C. Payne.                                                |
 |   Comput. Phys. Commun. 140, pp.315-322 (2001).               |
 |                                                               |
 |  "Accurate ionic forces and geometry optimization in linear-  |
 |   scaling density-functional theory with local orbitals"      |
 |   N. D. M. Hine, M. Robinson, P. D. Haynes, C.-K. Skylaris,   |
 |   M. C. Payne, and A. A. Mostofi.                             |
 |   Phys. Rev. B 83 195102 (2011).                              |
 |                                                               |
 +---------------------------------------------------------------+

Job started: 21-02-2020 13:01 (-0000)
 
Reading parameters from file "3.21716088_GO_manual_4x64graphite.dat" ...

WARNING: "cutoff_energy" not specified, but "psinc_spacing" specified.
         Using the latter to set the KE cutoff energy to  732.32021eV,
         thus *overriding* the default.

... done

If your calculation crashes here, before "Checking processes and threads..."
is displayed, then your stack size is insufficient.
If so, use "ulimit -s unlimited" at runtime.
You can disable this check with "check_stack_size F".

Checking processes and threads...
   Determining the default number of threads...
      No default threads set at compilation time: defaulting to 1.
      OpenMP library call suggests 4 threads.
      Hybrid MPI-OpenMP compilation detected.
      Number of MPI processes > 1.
      OMP_NUM_THREADS environment variable present and
      its value matches the one obtained from the OpenMP library call.
      Using this value as default.
      Default threads: 4
      Default applies to threads_max and threads_num_fftboxes.
      Settings in the input file override this default.
   ... done

   Running with 40 MPI processes.
   There are 10 MPI processes running on the same node as the root process.
   Each MPI process is using: 
               1 threads for simulation cell FFTs.
               1 threads for parallel FFT box operations.
               4 threads for loops over batched FFT box operations.
               4 threads in other parallel regions.
... done

Basic input checks...
Resetting ngwf_cg_rotate to TRUE for EDFT calculations
... done

Reading geometry and species blocks from file "3.21716088_GO_manual_4x64graphite.dat" ...
    
  PSINC grid spacing along a1 set to   0.511215680000a0 from input file.
  PSINC grid spacing along a2 set to   0.531284090000a0 from input file.
  PSINC grid spacing along a3 set to   0.506630450000a0 from input file.
  Number of PPD points along a3 set to 1.  This is 
  the default value, it may have been provided also in the input file.
... done
 Writing xyz coordinates to file "3.21716088_GO_manual_4x64graphite.xyz" ... done


--------------------------------------------------------------------------------
---------------------------------- INPUT FILE ----------------------------------
--------------------------------------------------------------------------------

task : singlepoint                                                              
do_properties : true                                                            
dx_format T                                                                     
edft T                                                                          
output_detail VERBOSE                                                           
write_xyz T                                                                     
xc_functional VV10                                                              
PSINC_SPACING 0.51121568 0.53128409 0.50663045                                  
paw T                                                                           
pdos_max_l = 2                                                                  
dos_smear  0.1 eV                                                               
popn_calculate T                                                                
PDOS_PSEUDOATOMIC T                                                             
PDOS_REDUCE_SWS F                                                               
PDOS_CONSTRUCT_BASIS F                                                          
PDOS_LOWDIN T                                                                   
PDOS_ORTH_ATOM_BLOCKS F                                                         
PDOS_LCAO_OPTIMIZE F                                                            
pdos_optados_output T                                                           
homo_plot 0                                                                     
lumo_plot 0                                                                     
homo_dens_plot -1                                                               
lumo_dens_plot -1                                                               
%BLOCK SPECIES                                                                  
C C 6 4 9.0                                                                     
%ENDBLOCK SPECIES                                                               
%BLOCK SPECIES_POT                                                              
C "~/pp/paw/c_pbe_abinit.paw"                                                   
%ENDBLOCK SPECIES_POT                                                           
%BLOCK SPECIES_ATOMIC_SET                                                       
C "SOLVE conf=2s2 2p2"                                                          
%ENDBLOCK SPECIES_ATOMIC_SET                                                    
%BLOCK LATTICE_CART                                                             
32.21  0.00  0.00                                                               
0.00 18.59  0.00                                                                
0.00  0.00 60.80                                                                
%ENDBLOCK LATTICE_CART                                                          
%BLOCK POSITIONS_ABS                                                            
C  0.00  0.00  3.04                                                             
C  0.00  0.00 15.20                                                             
C  0.00  0.00 27.36                                                             
C  0.00  0.00 39.52                                                             
C  0.00  0.00 51.68                                                             
C  0.00  4.65  3.04                                                             
C  0.00  4.65 15.20                                                             
C  0.00  4.65 27.36                                                             
C  0.00  4.65 39.52                                                             
C  0.00  4.65 51.68                                                             
C  4.03  2.32  3.04                                                             
C  4.03  2.32 15.20                                                             
C  4.03  2.32 27.36                                                             
C  4.03  2.32 39.52                                                             
C  4.03  2.32 51.68                                                             
C  8.05  0.00  3.04                                                             
C  8.05  0.00 15.20                                                             
C  8.05  0.00 27.36                                                             
C  8.05  0.00 39.52                                                             
C  8.05  0.00 51.68                                                             
C  0.00  9.30  3.04                                                             
C  0.00  9.30 15.20                                                             
C  0.00  9.30 27.36                                                             
C  0.00  9.30 39.52                                                             
C  0.00  9.30 51.68                                                             
C  4.03  6.97  3.04                                                             
C  4.03  6.97 15.20                                                             
C  4.03  6.97 27.36                                                             
C  4.03  6.97 39.52                                                             
C  4.03  6.97 51.68                                                             
C  8.05  4.65  3.04                                                             
C  8.05  4.65 15.20                                                             
C  8.05  4.65 27.36                                                             
C  8.05  4.65 39.52                                                             
C  8.05  4.65 51.68                                                             
C 12.08  2.32  3.04                                                             
C 12.08  2.32 15.20                                                             
C 12.08  2.32 27.36                                                             
C 12.08  2.32 39.52                                                             
C 12.08  2.32 51.68                                                             
C 16.10  0.00  3.04                                                             
C 16.10  0.00 15.20                                                             
C 16.10  0.00 27.36                                                             
C 16.10  0.00 39.52                                                             
C 16.10  0.00 51.68                                                             
C  0.00 13.95  3.04                                                             
C  0.00 13.95 15.20                                                             
C  0.00 13.95 27.36                                                             
C  0.00 13.95 39.52                                                             
C  0.00 13.95 51.68                                                             
C  4.03 11.62  3.04                                                             
C  4.03 11.62 15.20                                                             
C  4.03 11.62 27.36                                                             
C  4.03 11.62 39.52                                                             
C  4.03 11.62 51.68                                                             
C  8.05  9.30  3.04                                                             
C  8.05  9.30 15.20                                                             
C  8.05  9.30 27.36                                                             
C  8.05  9.30 39.52                                                             
C  8.05  9.30 51.68                                                             
C 12.08  6.97  3.04                                                             
C 12.08  6.97 15.20                                                             
C 12.08  6.97 27.36                                                             
C 12.08  6.97 39.52                                                             
C 12.08  6.97 51.68                                                             
C 16.10  4.65  3.04                                                             
C 16.10  4.65 15.20                                                             
C 16.10  4.65 27.36                                                             
C 16.10  4.65 39.52                                                             
C 16.10  4.65 51.68                                                             
C 20.13  2.32  3.04                                                             
C 20.13  2.32 15.20                                                             
C 20.13  2.32 27.36                                                             
C 20.13  2.32 39.52                                                             
C 20.13  2.32 51.68                                                             
C 24.16  0.00  3.04                                                             
C 24.16  0.00 15.20                                                             
C 24.16  0.00 27.36                                                             
C 24.16  0.00 39.52                                                             
C 24.16  0.00 51.68                                                             
C  4.03 16.27  3.04                                                             
C  4.03 16.27 15.20                                                             
C  4.03 16.27 27.36                                                             
C  4.03 16.27 39.52                                                             
C  4.03 16.27 51.68                                                             
C  8.05 13.95  3.04                                                             
C  8.05 13.95 15.20                                                             
C  8.05 13.95 27.36                                                             
C  8.05 13.95 39.52                                                             
C  8.05 13.95 51.68                                                             
C 12.08 11.62  3.04                                                             
C 12.08 11.62 15.20                                                             
C 12.08 11.62 27.36                                                             
C 12.08 11.62 39.52                                                             
C 12.08 11.62 51.68                                                             
C 16.10  9.30  3.04                                                             
C 16.10  9.30 15.20                                                             
C 16.10  9.30 27.36                                                             
C 16.10  9.30 39.52                                                             
C 16.10  9.30 51.68                                                             
C 20.13  6.97  3.04                                                             
C 20.13  6.97 15.20                                                             
C 20.13  6.97 27.36                                                             
C 20.13  6.97 39.52                                                             
C 20.13  6.97 51.68                                                             
C 24.16  4.65  3.04                                                             
C 24.16  4.65 15.20                                                             
C 24.16  4.65 27.36                                                             
C 24.16  4.65 39.52                                                             
C 24.16  4.65 51.68                                                             
C 28.18  2.32  3.04                                                             
C 28.18  2.32 15.20                                                             
C 28.18  2.32 27.36                                                             
C 28.18  2.32 39.52                                                             
C 28.18  2.32 51.68                                                             
C 12.08 16.27  3.04                                                             
C 12.08 16.27 15.20                                                             
C 12.08 16.27 27.36                                                             
C 12.08 16.27 39.52                                                             
C 12.08 16.27 51.68                                                             
C 16.10 13.95  3.04                                                             
C 16.10 13.95 15.20                                                             
C 16.10 13.95 27.36                                                             
C 16.10 13.95 39.52                                                             
C 16.10 13.95 51.68                                                             
C 20.13 11.62  3.04                                                             
C 20.13 11.62 15.20                                                             
C 20.13 11.62 27.36                                                             
C 20.13 11.62 39.52                                                             
C 20.13 11.62 51.68                                                             
C 24.16  9.30  3.04                                                             
C 24.16  9.30 15.20                                                             
C 24.16  9.30 27.36                                                             
C 24.16  9.30 39.52                                                             
C 24.16  9.30 51.68                                                             
C 28.18  6.97  3.04                                                             
C 28.18  6.97 15.20                                                             
C 28.18  6.97 27.36                                                             
C 28.18  6.97 39.52                                                             
C 28.18  6.97 51.68                                                             
C 20.13 16.27  3.04                                                             
C 20.13 16.27 15.20                                                             
C 20.13 16.27 27.36                                                             
C 20.13 16.27 39.52                                                             
C 20.13 16.27 51.68                                                             
C 24.16 13.95  3.04                                                             
C 24.16 13.95 15.20                                                             
C 24.16 13.95 27.36                                                             
C 24.16 13.95 39.52                                                             
C 24.16 13.95 51.68                                                             
C 28.18 11.62  3.04                                                             
C 28.18 11.62 15.20                                                             
C 28.18 11.62 27.36                                                             
C 28.18 11.62 39.52                                                             
C 28.18 11.62 51.68                                                             
C 28.18 16.27  3.04                                                             
C 28.18 16.27 15.20                                                             
C 28.18 16.27 27.36                                                             
C 28.18 16.27 39.52                                                             
C 28.18 16.27 51.68                                                             
C  0.00  0.00  9.12                                                             
C  0.00  0.00 21.28                                                             
C  0.00  0.00 33.44                                                             
C  0.00  0.00 45.60                                                             
C  0.00  0.00 57.76                                                             
C  0.00  4.65  9.12                                                             
C  0.00  4.65 21.28                                                             
C  0.00  4.65 33.44                                                             
C  0.00  4.65 45.60                                                             
C  0.00  4.65 57.76                                                             
C  4.03  2.32  9.12                                                             
C  4.03  2.32 21.28                                                             
C  4.03  2.32 33.44                                                             
C  4.03  2.32 45.60                                                             
C  4.03  2.32 57.76                                                             
C  8.05  0.00  9.12                                                             
C  8.05  0.00 21.28                                                             
C  8.05  0.00 33.44                                                             
C  8.05  0.00 45.60                                                             
C  8.05  0.00 57.76                                                             
C  0.00  9.30  9.12                                                             
C  0.00  9.30 21.28                                                             
C  0.00  9.30 33.44                                                             
C  0.00  9.30 45.60                                                             
C  0.00  9.30 57.76                                                             
C  4.03  6.97  9.12                                                             
C  4.03  6.97 21.28                                                             
C  4.03  6.97 33.44                                                             
C  4.03  6.97 45.60                                                             
C  4.03  6.97 57.76                                                             
C  8.05  4.65  9.12                                                             
C  8.05  4.65 21.28                                                             
C  8.05  4.65 33.44                                                             
C  8.05  4.65 45.60                                                             
C  8.05  4.65 57.76                                                             
C 12.08  2.32  9.12                                                             
C 12.08  2.32 21.28                                                             
C 12.08  2.32 33.44                                                             
C 12.08  2.32 45.60                                                             
C 12.08  2.32 57.76                                                             
C 16.10  0.00  9.12                                                             
C 16.10  0.00 21.28                                                             
C 16.10  0.00 33.44                                                             
C 16.10  0.00 45.60                                                             
C 16.10  0.00 57.76                                                             
C  0.00 13.95  9.12                                                             
C  0.00 13.95 21.28                                                             
C  0.00 13.95 33.44                                                             
C  0.00 13.95 45.60                                                             
C  0.00 13.95 57.76                                                             
C  4.03 11.62  9.12                                                             
C  4.03 11.62 21.28                                                             
C  4.03 11.62 33.44                                                             
C  4.03 11.62 45.60                                                             
C  4.03 11.62 57.76                                                             
C  8.05  9.30  9.12                                                             
C  8.05  9.30 21.28                                                             
C  8.05  9.30 33.44                                                             
C  8.05  9.30 45.60                                                             
C  8.05  9.30 57.76                                                             
C 12.08  6.97  9.12                                                             
C 12.08  6.97 21.28                                                             
C 12.08  6.97 33.44                                                             
C 12.08  6.97 45.60                                                             
C 12.08  6.97 57.76                                                             
C 16.10  4.65  9.12                                                             
C 16.10  4.65 21.28                                                             
C 16.10  4.65 33.44                                                             
C 16.10  4.65 45.60                                                             
C 16.10  4.65 57.76                                                             
C 20.13  2.32  9.12                                                             
C 20.13  2.32 21.28                                                             
C 20.13  2.32 33.44                                                             
C 20.13  2.32 45.60                                                             
C 20.13  2.32 57.76                                                             
C 24.16  0.00  9.12                                                             
C 24.16  0.00 21.28                                                             
C 24.16  0.00 33.44                                                             
C 24.16  0.00 45.60                                                             
C 24.16  0.00 57.76                                                             
C  4.03 16.27  9.12                                                             
C  4.03 16.27 21.28                                                             
C  4.03 16.27 33.44                                                             
C  4.03 16.27 45.60                                                             
C  4.03 16.27 57.76                                                             
C  8.05 13.95  9.12                                                             
C  8.05 13.95 21.28                                                             
C  8.05 13.95 33.44                                                             
C  8.05 13.95 45.60                                                             
C  8.05 13.95 57.76                                                             
C 12.08 11.62  9.12                                                             
C 12.08 11.62 21.28                                                             
C 12.08 11.62 33.44                                                             
C 12.08 11.62 45.60                                                             
C 12.08 11.62 57.76                                                             
C 16.10  9.30  9.12                                                             
C 16.10  9.30 21.28                                                             
C 16.10  9.30 33.44                                                             
C 16.10  9.30 45.60                                                             
C 16.10  9.30 57.76                                                             
C 20.13  6.97  9.12                                                             
C 20.13  6.97 21.28                                                             
C 20.13  6.97 33.44                                                             
C 20.13  6.97 45.60                                                             
C 20.13  6.97 57.76                                                             
C 24.16  4.65  9.12                                                             
C 24.16  4.65 21.28                                                             
C 24.16  4.65 33.44                                                             
C 24.16  4.65 45.60                                                             
C 24.16  4.65 57.76                                                             
C 28.18  2.32  9.12                                                             
C 28.18  2.32 21.28                                                             
C 28.18  2.32 33.44                                                             
C 28.18  2.32 45.60                                                             
C 28.18  2.32 57.76                                                             
C 12.08 16.27  9.12                                                             
C 12.08 16.27 21.28                                                             
C 12.08 16.27 33.44                                                             
C 12.08 16.27 45.60                                                             
C 12.08 16.27 57.76                                                             
C 16.10 13.95  9.12                                                             
C 16.10 13.95 21.28                                                             
C 16.10 13.95 33.44                                                             
C 16.10 13.95 45.60                                                             
C 16.10 13.95 57.76                                                             
C 20.13 11.62  9.12                                                             
C 20.13 11.62 21.28                                                             
C 20.13 11.62 33.44                                                             
C 20.13 11.62 45.60                                                             
C 20.13 11.62 57.76                                                             
C 24.16  9.30  9.12                                                             
C 24.16  9.30 21.28                                                             
C 24.16  9.30 33.44                                                             
C 24.16  9.30 45.60                                                             
C 24.16  9.30 57.76                                                             
C 28.18  6.97  9.12                                                             
C 28.18  6.97 21.28                                                             
C 28.18  6.97 33.44                                                             
C 28.18  6.97 45.60                                                             
C 28.18  6.97 57.76                                                             
C 20.13 16.27  9.12                                                             
C 20.13 16.27 21.28                                                             
C 20.13 16.27 33.44                                                             
C 20.13 16.27 45.60                                                             
C 20.13 16.27 57.76                                                             
C 24.16 13.95  9.12                                                             
C 24.16 13.95 21.28                                                             
C 24.16 13.95 33.44                                                             
C 24.16 13.95 45.60                                                             
C 24.16 13.95 57.76                                                             
C 28.18 11.62  9.12                                                             
C 28.18 11.62 21.28                                                             
C 28.18 11.62 33.44                                                             
C 28.18 11.62 45.60                                                             
C 28.18 11.62 57.76                                                             
C 28.18 16.27  9.12                                                             
C 28.18 16.27 21.28                                                             
C 28.18 16.27 33.44                                                             
C 28.18 16.27 45.60                                                             
C 28.18 16.27 57.76                                                             
C  1.34  2.32  3.04                                                             
C  1.34  2.32 15.20                                                             
C  1.34  2.32 27.36                                                             
C  1.34  2.32 39.52                                                             
C  1.34  2.32 51.68                                                             
C  5.37  0.00  3.04                                                             
C  5.37  0.00 15.20                                                             
C  5.37  0.00 27.36                                                             
C  5.37  0.00 39.52                                                             
C  5.37  0.00 51.68                                                             
C  1.34  6.97  3.04                                                             
C  1.34  6.97 15.20                                                             
C  1.34  6.97 27.36                                                             
C  1.34  6.97 39.52                                                             
C  1.34  6.97 51.68                                                             
C  5.37  4.65  3.04                                                             
C  5.37  4.65 15.20                                                             
C  5.37  4.65 27.36                                                             
C  5.37  4.65 39.52                                                             
C  5.37  4.65 51.68                                                             
C  9.39  2.32  3.04                                                             
C  9.39  2.32 15.20                                                             
C  9.39  2.32 27.36                                                             
C  9.39  2.32 39.52                                                             
C  9.39  2.32 51.68                                                             
C 13.42  0.00  3.04                                                             
C 13.42  0.00 15.20                                                             
C 13.42  0.00 27.36                                                             
C 13.42  0.00 39.52                                                             
C 13.42  0.00 51.68                                                             
C  1.34 11.62  3.04                                                             
C  1.34 11.62 15.20                                                             
C  1.34 11.62 27.36                                                             
C  1.34 11.62 39.52                                                             
C  1.34 11.62 51.68                                                             
C  5.37  9.30  3.04                                                             
C  5.37  9.30 15.20                                                             
C  5.37  9.30 27.36                                                             
C  5.37  9.30 39.52                                                             
C  5.37  9.30 51.68                                                             
C  9.39  6.97  3.04                                                             
C  9.39  6.97 15.20                                                             
C  9.39  6.97 27.36                                                             
C  9.39  6.97 39.52                                                             
C  9.39  6.97 51.68                                                             
C 13.42  4.65  3.04                                                             
C 13.42  4.65 15.20                                                             
C 13.42  4.65 27.36                                                             
C 13.42  4.65 39.52                                                             
C 13.42  4.65 51.68                                                             
C 17.45  2.32  3.04                                                             
C 17.45  2.32 15.20                                                             
C 17.45  2.32 27.36                                                             
C 17.45  2.32 39.52                                                             
C 17.45  2.32 51.68                                                             
C 21.47  0.00  3.04                                                             
C 21.47  0.00 15.20                                                             
C 21.47  0.00 27.36                                                             
C 21.47  0.00 39.52                                                             
C 21.47  0.00 51.68                                                             
C  1.34 16.27  3.04                                                             
C  1.34 16.27 15.20                                                             
C  1.34 16.27 27.36                                                             
C  1.34 16.27 39.52                                                             
C  1.34 16.27 51.68                                                             
C  5.37 13.95  3.04                                                             
C  5.37 13.95 15.20                                                             
C  5.37 13.95 27.36                                                             
C  5.37 13.95 39.52                                                             
C  5.37 13.95 51.68                                                             
C  9.39 11.62  3.04                                                             
C  9.39 11.62 15.20                                                             
C  9.39 11.62 27.36                                                             
C  9.39 11.62 39.52                                                             
C  9.39 11.62 51.68                                                             
C 13.42  9.30  3.04                                                             
C 13.42  9.30 15.20                                                             
C 13.42  9.30 27.36                                                             
C 13.42  9.30 39.52                                                             
C 13.42  9.30 51.68                                                             
C 17.45  6.97  3.04                                                             
C 17.45  6.97 15.20                                                             
C 17.45  6.97 27.36                                                             
C 17.45  6.97 39.52                                                             
C 17.45  6.97 51.68                                                             
C 21.47  4.65  3.04                                                             
C 21.47  4.65 15.20                                                             
C 21.47  4.65 27.36                                                             
C 21.47  4.65 39.52                                                             
C 21.47  4.65 51.68                                                             
C 25.50  2.32  3.04                                                             
C 25.50  2.32 15.20                                                             
C 25.50  2.32 27.36                                                             
C 25.50  2.32 39.52                                                             
C 25.50  2.32 51.68                                                             
C 29.52  0.00  3.04                                                             
C 29.52  0.00 15.20                                                             
C 29.52  0.00 27.36                                                             
C 29.52  0.00 39.52                                                             
C 29.52  0.00 51.68                                                             
C  9.39 16.27  3.04                                                             
C  9.39 16.27 15.20                                                             
C  9.39 16.27 27.36                                                             
C  9.39 16.27 39.52                                                             
C  9.39 16.27 51.68                                                             
C 13.42 13.95  3.04                                                             
C 13.42 13.95 15.20                                                             
C 13.42 13.95 27.36                                                             
C 13.42 13.95 39.52                                                             
C 13.42 13.95 51.68                                                             
C 17.45 11.62  3.04                                                             
C 17.45 11.62 15.20                                                             
C 17.45 11.62 27.36                                                             
C 17.45 11.62 39.52                                                             
C 17.45 11.62 51.68                                                             
C 21.47  9.30  3.04                                                             
C 21.47  9.30 15.20                                                             
C 21.47  9.30 27.36                                                             
C 21.47  9.30 39.52                                                             
C 21.47  9.30 51.68                                                             
C 25.50  6.97  3.04                                                             
C 25.50  6.97 15.20                                                             
C 25.50  6.97 27.36                                                             
C 25.50  6.97 39.52                                                             
C 25.50  6.97 51.68                                                             
C 29.52  4.65  3.04                                                             
C 29.52  4.65 15.20                                                             
C 29.52  4.65 27.36                                                             
C 29.52  4.65 39.52                                                             
C 29.52  4.65 51.68                                                             
C 17.45 16.27  3.04                                                             
C 17.45 16.27 15.20                                                             
C 17.45 16.27 27.36                                                             
C 17.45 16.27 39.52                                                             
C 17.45 16.27 51.68                                                             
C 21.47 13.95  3.04                                                             
C 21.47 13.95 15.20                                                             
C 21.47 13.95 27.36                                                             
C 21.47 13.95 39.52                                                             
C 21.47 13.95 51.68                                                             
C 25.50 11.62  3.04                                                             
C 25.50 11.62 15.20                                                             
C 25.50 11.62 27.36                                                             
C 25.50 11.62 39.52                                                             
C 25.50 11.62 51.68                                                             
C 29.52  9.30  3.04                                                             
C 29.52  9.30 15.20                                                             
C 29.52  9.30 27.36                                                             
C 29.52  9.30 39.52                                                             
C 29.52  9.30 51.68                                                             
C 25.50 16.27  3.04                                                             
C 25.50 16.27 15.20                                                             
C 25.50 16.27 27.36                                                             
C 25.50 16.27 39.52                                                             
C 25.50 16.27 51.68                                                             
C 29.52 13.95  3.04                                                             
C 29.52 13.95 15.20                                                             
C 29.52 13.95 27.36                                                             
C 29.52 13.95 39.52                                                             
C 29.52 13.95 51.68                                                             
C  2.68  0.00  9.12                                                             
C  2.68  0.00 21.28                                                             
C  2.68  0.00 33.44                                                             
C  2.68  0.00 45.60                                                             
C  2.68  0.00 57.76                                                             
C  2.68  4.65  9.12                                                             
C  2.68  4.65 21.28                                                             
C  2.68  4.65 33.44                                                             
C  2.68  4.65 45.60                                                             
C  2.68  4.65 57.76                                                             
C  6.71  2.32  9.12                                                             
C  6.71  2.32 21.28                                                             
C  6.71  2.32 33.44                                                             
C  6.71  2.32 45.60                                                             
C  6.71  2.32 57.76                                                             
C 10.74  0.00  9.12                                                             
C 10.74  0.00 21.28                                                             
C 10.74  0.00 33.44                                                             
C 10.74  0.00 45.60                                                             
C 10.74  0.00 57.76                                                             
C  2.68  9.30  9.12                                                             
C  2.68  9.30 21.28                                                             
C  2.68  9.30 33.44                                                             
C  2.68  9.30 45.60                                                             
C  2.68  9.30 57.76                                                             
C  6.71  6.97  9.12                                                             
C  6.71  6.97 21.28                                                             
C  6.71  6.97 33.44                                                             
C  6.71  6.97 45.60                                                             
C  6.71  6.97 57.76                                                             
C 10.74  4.65  9.12                                                             
C 10.74  4.65 21.28                                                             
C 10.74  4.65 33.44                                                             
C 10.74  4.65 45.60                                                             
C 10.74  4.65 57.76                                                             
C 14.76  2.32  9.12                                                             
C 14.76  2.32 21.28                                                             
C 14.76  2.32 33.44                                                             
C 14.76  2.32 45.60                                                             
C 14.76  2.32 57.76                                                             
C 18.79  0.00  9.12                                                             
C 18.79  0.00 21.28                                                             
C 18.79  0.00 33.44                                                             
C 18.79  0.00 45.60                                                             
C 18.79  0.00 57.76                                                             
C  2.68 13.95  9.12                                                             
C  2.68 13.95 21.28                                                             
C  2.68 13.95 33.44                                                             
C  2.68 13.95 45.60                                                             
C  2.68 13.95 57.76                                                             
C  6.71 11.62  9.12                                                             
C  6.71 11.62 21.28                                                             
C  6.71 11.62 33.44                                                             
C  6.71 11.62 45.60                                                             
C  6.71 11.62 57.76                                                             
C 10.74  9.30  9.12                                                             
C 10.74  9.30 21.28                                                             
C 10.74  9.30 33.44                                                             
C 10.74  9.30 45.60                                                             
C 10.74  9.30 57.76                                                             
C 14.76  6.97  9.12                                                             
C 14.76  6.97 21.28                                                             
C 14.76  6.97 33.44                                                             
C 14.76  6.97 45.60                                                             
C 14.76  6.97 57.76                                                             
C 18.79  4.65  9.12                                                             
C 18.79  4.65 21.28                                                             
C 18.79  4.65 33.44                                                             
C 18.79  4.65 45.60                                                             
C 18.79  4.65 57.76                                                             
C 22.81  2.32  9.12                                                             
C 22.81  2.32 21.28                                                             
C 22.81  2.32 33.44                                                             
C 22.81  2.32 45.60                                                             
C 22.81  2.32 57.76                                                             
C 26.84  0.00  9.12                                                             
C 26.84  0.00 21.28                                                             
C 26.84  0.00 33.44                                                             
C 26.84  0.00 45.60                                                             
C 26.84  0.00 57.76                                                             
C  6.71 16.27  9.12                                                             
C  6.71 16.27 21.28                                                             
C  6.71 16.27 33.44                                                             
C  6.71 16.27 45.60                                                             
C  6.71 16.27 57.76                                                             
C 10.74 13.95  9.12                                                             
C 10.74 13.95 21.28                                                             
C 10.74 13.95 33.44                                                             
C 10.74 13.95 45.60                                                             
C 10.74 13.95 57.76                                                             
C 14.76 11.62  9.12                                                             
C 14.76 11.62 21.28                                                             
C 14.76 11.62 33.44                                                             
C 14.76 11.62 45.60                                                             
C 14.76 11.62 57.76                                                             
C 18.79  9.30  9.12                                                             
C 18.79  9.30 21.28                                                             
C 18.79  9.30 33.44                                                             
C 18.79  9.30 45.60                                                             
C 18.79  9.30 57.76                                                             
C 22.81  6.97  9.12                                                             
C 22.81  6.97 21.28                                                             
C 22.81  6.97 33.44                                                             
C 22.81  6.97 45.60                                                             
C 22.81  6.97 57.76                                                             
C 26.84  4.65  9.12                                                             
C 26.84  4.65 21.28                                                             
C 26.84  4.65 33.44                                                             
C 26.84  4.65 45.60                                                             
C 26.84  4.65 57.76                                                             
C 30.86  2.32  9.12                                                             
C 30.86  2.32 21.28                                                             
C 30.86  2.32 33.44                                                             
C 30.86  2.32 45.60                                                             
C 30.86  2.32 57.76                                                             
C 14.76 16.27  9.12                                                             
C 14.76 16.27 21.28                                                             
C 14.76 16.27 33.44                                                             
C 14.76 16.27 45.60                                                             
C 14.76 16.27 57.76                                                             
C 18.79 13.95  9.12                                                             
C 18.79 13.95 21.28                                                             
C 18.79 13.95 33.44                                                             
C 18.79 13.95 45.60                                                             
C 18.79 13.95 57.76                                                             
C 22.81 11.62  9.12                                                             
C 22.81 11.62 21.28                                                             
C 22.81 11.62 33.44                                                             
C 22.81 11.62 45.60                                                             
C 22.81 11.62 57.76                                                             
C 26.84  9.30  9.12                                                             
C 26.84  9.30 21.28                                                             
C 26.84  9.30 33.44                                                             
C 26.84  9.30 45.60                                                             
C 26.84  9.30 57.76                                                             
C 30.86  6.97  9.12                                                             
C 30.86  6.97 21.28                                                             
C 30.86  6.97 33.44                                                             
C 30.86  6.97 45.60                                                             
C 30.86  6.97 57.76                                                             
C 22.81 16.27  9.12                                                             
C 22.81 16.27 21.28                                                             
C 22.81 16.27 33.44                                                             
C 22.81 16.27 45.60                                                             
C 22.81 16.27 57.76                                                             
C 26.84 13.95  9.12                                                             
C 26.84 13.95 21.28                                                             
C 26.84 13.95 33.44                                                             
C 26.84 13.95 45.60                                                             
C 26.84 13.95 57.76                                                             
C 30.86 11.62  9.12                                                             
C 30.86 11.62 21.28                                                             
C 30.86 11.62 33.44                                                             
C 30.86 11.62 45.60                                                             
C 30.86 11.62 57.76                                                             
C 30.86 16.27  9.12                                                             
C 30.86 16.27 21.28                                                             
C 30.86 16.27 33.44                                                             
C 30.86 16.27 45.60                                                             
C 30.86 16.27 57.76                                                             
%ENDBLOCK POSITIONS_ABS                                                         

--------------------------------------------------------------------------------
-------------------------------- END INPUT FILE --------------------------------
--------------------------------------------------------------------------------


 
<<<<<<<<<<<<<<<<<<<<<<<<<<<<<<<<< Full system >>>>>>>>>>>>>>>>>>>>>>>>>>>>>>>>>>
<<<<<<<<<<<<<<<<<<<<<<<<<<< PAW Dataset information >>>>>>>>>>>>>>>>>>>>>>>>>>>
File: ~/pp/paw/c_pbe_abinit.paw; rc = 1.25 bohr; shape type =  3; rshape = 1.25 bohr;
  Atomic number:  6;  ionic charge:  4.000000
    Partial Wave 1: l = 0
    Partial Wave 2: l = 0
    Partial Wave 3: l = 1
    Partial Wave 4: l = 1
  Core charge supplied for Nonlinear Core Corrections
<<<<<<<<<<<<<<<<<<<<<<<<<<<<<<<<<<<<<<< >>>>>>>>>>>>>>>>>>>>>>>>>>>>>>>>>>>>>>>

-------------------------- Atom counting information ---------------------------
Symbol    Natoms    Nngwfs    Nprojs
  C        640      2560      5120
.......   ......    ......    ......
Totals:    640      2560      5120
--------------------------------------------------------------------------------

=============================== PSINC grid sizes ===============================
                      Simulation cell:   63 x  35 x 120
                              FFT-box:   63 x  35 x 117
                                  PPD:    7 x   5 x   1
Grid space d1=  0.511269841270a0 (KE cutoff=  29.06054Eh = 790.77748eV)
Grid space d2=  0.531142857143a0 (KE cutoff=  26.92659Eh = 732.70972eV)
Grid space d3=  0.506666666667a0 (KE cutoff=  29.59098Eh = 805.21151eV)
================================================================================
  
WARNING in cell_grid_distribute:
Average of less than one 23-slab per node, so workload cannot be
equally balanced between nodes.

********************* Fourier parallelisation information **********************
       Coarse grid (whole simulation cell) dimensions:     63    35   120
          Real-space ('12') slabs/node (min max mean):      3     3     3
         Recip-space ('23') slabs/node (min max mean):      0     1     0
********************************************************************************

********************* Fourier parallelisation information **********************
       Double grid (whole simulation cell) dimensions:    126    70   240
          Real-space ('12') slabs/node (min max mean):      6     6     6
         Recip-space ('23') slabs/node (min max mean):      1     2     1
********************************************************************************

Atom SCF Calculation for C  : Z (AE atom) =   6 : Z (PS atom) =   4
Config String: 2s2 2p2
Orbitals (num,occ):  2     2.00 2.00
Orbitals   (num,l):  2        0    1
Real-space Grid (nr,dr,rmax): 1293    0.0069659443    9.0000000000
Spherical Bessel Basis (nsws,lmax,cutoff):   37    2  161.4736382572
Confining potential (l,width,scale):  0    3.0000000000  100.0000000000
Confining potential (l,width,scale):  1    3.0000000000  100.0000000000
  1         -5.4283124456   -1.2935102156    4.5135257941   -1.5923561795
  2         -5.4241534249   -1.3636937911    4.4427183619   -1.5694122055
  3         -5.4326289545   -1.3865748334    4.4195613881   -1.5634604620
  4         -5.4368073263   -1.3933479911    4.4127833993   -1.5619680687
  5         -5.4388652800   -1.3969668505    4.4091714945   -1.5612108736
  6         -5.4399077146   -1.3988848872    4.4072644158   -1.5608235486
  7         -5.4404434041   -1.3998980658    4.4062615348   -1.5606243010
  8         -5.4407208401   -1.4004325328    4.4057350952   -1.5605214507
  9         -5.4408651553   -1.4007143559    4.4054589454   -1.5604682523
 10         -5.4409404127   -1.4008629743    4.4053141024   -1.5604407028
 11         -5.4409797152   -1.4009413770    4.4052381126   -1.5604264250
 12         -5.4410002582   -1.4009827603    4.4051982277   -1.5604190215
 13         -5.4410110012   -1.4010046176    4.4051772812   -1.5604151811
 14         -5.4410166211   -1.4010161701    4.4051662735   -1.5604131883
 15         -5.4410195614   -1.4010222805    4.4051604845   -1.5604121539
 16         -5.4410211001   -1.4010255150    4.4051574379   -1.5604116169
 17         -5.4410219052   -1.4010272285    4.4051558332   -1.5604113379
 18         -5.4410223266   -1.4010281369    4.4051549874   -1.5604111930
 19         -5.4410225472   -1.4010286190    4.4051545411   -1.5604111177
 20         -5.4410226626   -1.4010288749    4.4051543055   -1.5604110786
 21         -5.4410227231   -1.4010290110    4.4051541810   -1.5604110582
Atom SCF converged after  21 iterations to a total energy of     -5.44102272

Determining parallel strategy ...
... using space-filling curve
... NGWF load balancing: max     64;  min     64;  average     64
... Projector load balancing: max    128;  min    128;  average    128
... done
Calculating Ewald energy ...
              Ewald: real-space energy =    9523.991193
        Ewald: reciprocal-space energy =       0.044294
         Ewald: (sum_charge)**2 Energy =   11472.693175
         Ewald: (sum_charge**2) Energy =     906.996033
                          Ewald Energy =   -2855.653722
Basis initialisation ...... NGWF spheres initialised
... Projector spheres initialised
... NGWF tight boxes initialised
... Projector tight boxes initialised
... Tight-boxes gathered
... NGWF basis size (local,global):     694036  27886560
... PAW projector initialisation
... done

============================= Charge Augmentation ==============================
                           Aug box size:   11 x  11 x  11
================================================================================

========================== Sparse matrix information ===========================
                        Overlap matrix filling:  44.38%
                        Density kernel filling: 100.00%
              NGWF-Proj overlap matrix filling:  13.12%
                    Aug Overlap matrix filling:  47.81%
                    Hamiltonian matrix filling:  47.81%
                  NGWF diagonal matrix filling:   0.16%
                             KS matrix filling: 100.00% 
                           KSKS matrix filling: 100.00% 
================================================================================

Sparse matrix initialisation ... done
NGWF initialisation ...... done
============ Calculation of NGWF S^-1 using Hotelling algorithm ================ 
         Iteration  |  Frobenius norm and Maximum abs value    (of I-S*S_n^-1)   
               1       0.49213449E+02     0.97796162E+00
               2       0.48089559E+02     0.95770883E+00
               3       0.46370722E+02     0.92158840E+00
               4       0.44093687E+02     0.86213935E+00
               5       0.41332829E+02     0.77339359E+00
               6       0.38067305E+02     0.68920998E+00
               7       0.34563705E+02     0.63931991E+00
               8       0.31207414E+02     0.59808142E+00
               9       0.27751255E+02     0.55663582E+00
              10       0.23486573E+02     0.49450261E+00
              11       0.17901208E+02     0.39389185E+00
              12       0.11223411E+02     0.25455199E+00
              13       0.49906884E+01     0.11213851E+00
              14       0.11743813E+01     0.24553376E-01
              15       0.77239044E-01     0.14266440E-02
              16       0.41264535E-03     0.60723535E-05
              17       0.17298060E-07     0.16143054E-09
              18       0.86015318E-13     0.48849813E-14
================================================================================
Calculating core density ...
================================= Core Density =================================
               Core den box size:   21 x  21 x  21
================================================================================
 ... done
Up spin density kernel initialisation ...... done

Writing density kernel to file "3.21716088_GO_manual_4x64graphite.dkn" ... done

>>> Optimising kernel for current NGWFs:

--------------------------- Ensemble-DFT optimisation --------------------------
Running ScaLAPACK on   40 processor(s).

--------------------------------------------------------------------------------
  Iter                              Commutator    Free_energy(A=E-TS)     DeltaA
#    0                          0.000042676164   -3652.85900672473326  -3.65E+03

Step                       =       0.381966011250
Energy                     =   -3652.858965692013
Entropy (-TS)              =      -0.000041032315
Free energy (A=E-TS)       =   -3652.859006724733
Est. 0K Energy 0.5*(E+A)   =   -3652.858986208373
Residual Non-orthogonality =       0.000000000000
Residual N_electrons       =      -0.000000000405

Spin          Integrated_Ne            Fermi_level     Delta_Fermi_level
   1      2560.000000001723         0.234926342029              2.35E-01

                           Spin 1          
     Orb      H-eigenvalues     Occupancies
       1 |    -0.4883031509    1.0000000000 | 
                          ------
    1276 |     0.2021309190    0.9999681988 | 
    1277 |     0.2027454094    0.9999613890 | 
    1278 |     0.2027454094    0.9999613890 | 
    1279 |     0.2031767834    0.9999557547 | 
    1280 |     0.2037795026    0.9999464796 | 
                 - Gap at zero temperature -
    1281 |     0.2684964380    0.0000249005 | 
    1282 |     0.2684964380    0.0000249005 | 
    1283 |     0.2686164340    0.0000239746 | 
    1284 |     0.2687249436    0.0000231671 | 
    1285 |     0.2687249436    0.0000231671 | 
                          ------
    2560 |     1.0675177661    0.0000000000 | 

                       |  Abs_value |  Threshold | Converged
     Delta_Free_energy |   3.65E+03 |   1.00E-06 |        No
     Delta_Energy      |   3.65E+03 |   1.00E-04 |        No
     Delta_Entropy     |   4.10E-05 |   1.00E-04 |       Yes
     Commutator        |   4.27E-05 |   1.00E-05 |        No
     Delta_Fermi_level |   2.35E-01 |   1.00E-03 |        No

  Line search of the free energy minimum:
  Step_type        Step             Free_energy   Predicted_free_energy
.   Initial    0.000000    -3652.85900672473326
.    Trial1    0.381966    -3652.86084993099394
.    Trial2    0.618034    -3652.86043729362564
. Quadratic    0.417830    -3652.86086329808586    -3652.86086361134267

--------------------------------------------------------------------------------
  Iter                              Commutator    Free_energy(A=E-TS)     DeltaA
#    1                          0.000019529482   -3652.86086329808586  -1.86E-03

Step                       =       0.417829722103
Energy                     =   -3652.860823055674
Entropy (-TS)              =      -0.000040242738
Free energy (A=E-TS)       =   -3652.860863298086
Est. 0K Energy 0.5*(E+A)   =   -3652.860843176880
Residual Non-orthogonality =       0.000000000000
Residual N_electrons       =       0.000000000326

Spin          Integrated_Ne            Fermi_level     Delta_Fermi_level
   1      2559.999999998623         0.236702547737              1.78E-03

                           Spin 1          
     Orb      H-eigenvalues     Occupancies
       1 |    -0.4871104976    1.0000000000 | 
                          ------
    1276 |     0.2039074774    0.9999681953 | 
    1277 |     0.2044058453    0.9999627750 | 
    1278 |     0.2044058459    0.9999627750 | 
    1279 |     0.2049729961    0.9999554743 | 
    1280 |     0.2054600498    0.9999480720 | 
                 - Gap at zero temperature -
    1281 |     0.2703321521    0.0000244370 | 
    1282 |     0.2703321529    0.0000244369 | 
    1283 |     0.2704732147    0.0000233723 | 
    1284 |     0.2705920397    0.0000225116 | 
    1285 |     0.2705920397    0.0000225116 | 
                          ------
    2560 |     1.0704902842    0.0000000000 | 

                       |  Abs_value |  Threshold | Converged
     Delta_Free_energy |   1.86E-03 |   1.00E-06 |        No
     Delta_Energy      |   1.86E-03 |   1.00E-04 |        No
     Delta_Entropy     |   7.90E-07 |   1.00E-04 |       Yes
     Commutator        |   1.95E-05 |   1.00E-05 |        No
     Delta_Fermi_level |   1.78E-03 |   1.00E-03 |        No

  Line search of the free energy minimum:
  Step_type        Step             Free_energy   Predicted_free_energy
.   Initial    0.000000    -3652.86086329808586
.    Trial1    0.417830    -3652.86115086046766
.    Trial2    0.640199    -3652.86078961930343
. Quadratic    0.304171    -3652.86119783955610    -3652.86119752858940

--------------------------------------------------------------------------------
  Iter                              Commutator    Free_energy(A=E-TS)     DeltaA
#    2                          0.000013359678   -3652.86119783955610  -3.35E-04

Step                       =       0.304170589219
Energy                     =   -3652.861158059894
Entropy (-TS)              =      -0.000039779762
Free energy (A=E-TS)       =   -3652.861197839556
Est. 0K Energy 0.5*(E+A)   =   -3652.861177949725
Residual Non-orthogonality =       0.000000000000
Residual N_electrons       =       0.000000000101

Spin          Integrated_Ne            Fermi_level     Delta_Fermi_level
   1      2559.999999999576         0.237408105581              7.06E-04

                           Spin 1          
     Orb      H-eigenvalues     Occupancies
       1 |    -0.4866166223    1.0000000000 | 
                          ------
    1276 |     0.2045607283    0.9999687163 | 
    1277 |     0.2050841702    0.9999630937 | 
    1278 |     0.2050841702    0.9999630937 | 
    1279 |     0.2056213096    0.9999562719 | 
    1280 |     0.2061332800    0.9999485994 | 
                 - Gap at zero temperature -
    1281 |     0.2710826142    0.0000240929 | 
    1282 |     0.2710826149    0.0000240929 | 
    1283 |     0.2712228012    0.0000230497 | 
    1284 |     0.2713478853    0.0000221570 | 
    1285 |     0.2713478853    0.0000221570 | 
                          ------
    2560 |     1.0717288590    0.0000000000 | 

                       |  Abs_value |  Threshold | Converged
     Delta_Free_energy |   3.35E-04 |   1.00E-06 |        No
     Delta_Energy      |   3.35E-04 |   1.00E-04 |        No
     Delta_Entropy     |   4.63E-07 |   1.00E-04 |       Yes
     Commutator        |   1.34E-05 |   1.00E-05 |        No
     Delta_Fermi_level |   7.06E-04 |   1.00E-03 |       Yes

  Line search of the free energy minimum:
  Step_type        Step             Free_energy   Predicted_free_energy
.   Initial    0.000000    -3652.86119783955610
.    Trial1    0.304171    -3652.86133901071526
.    Trial2    0.569954    -3652.86116564469194
. Quadratic    0.270558    -3652.86134124936962    -3652.86134122375188

--------------------------------------------------------------------------------
  Iter                              Commutator    Free_energy(A=E-TS)     DeltaA
#    3                          0.000009342104   -3652.86134124936962  -1.43E-04

Step                       =       0.270557858727
Energy                     =   -3652.861301742920
Entropy (-TS)              =      -0.000039506008
Free energy (A=E-TS)       =   -3652.861341249370
Est. 0K Energy 0.5*(E+A)   =   -3652.861321496145
Residual Non-orthogonality =       0.000000000000
Residual N_electrons       =      -0.000000000442

Spin          Integrated_Ne            Fermi_level     Delta_Fermi_level
   1      2560.000000001859         0.237846242634              4.38E-04

                           Spin 1          
     Orb      H-eigenvalues     Occupancies
       1 |    -0.4863072971    1.0000000000 | 
                          ------
    1276 |     0.2049738355    0.9999689626 | 
    1277 |     0.2055009103    0.9999633422 | 
    1278 |     0.2055009103    0.9999633422 | 
    1279 |     0.2060331668    0.9999566333 | 
    1280 |     0.2065487537    0.9999489659 | 
                 - Gap at zero temperature -
    1281 |     0.2715451431    0.0000239080 | 
    1282 |     0.2715451438    0.0000239080 | 
    1283 |     0.2716860975    0.0000228673 | 
    1284 |     0.2718094394    0.0000219938 | 
    1285 |     0.2718094394    0.0000219938 | 
                          ------
    2560 |     1.0725037737    0.0000000000 | 

                       |  Abs_value |  Threshold | Converged
     Delta_Free_energy |   1.43E-04 |   1.00E-06 |        No
     Delta_Energy      |   1.44E-04 |   1.00E-04 |        No
     Delta_Entropy     |   2.74E-07 |   1.00E-04 |       Yes
     Commutator        |   9.34E-06 |   1.00E-05 |       Yes
     Delta_Fermi_level |   4.38E-04 |   1.00E-03 |       Yes

  Line search of the free energy minimum:
  Step_type        Step             Free_energy   Predicted_free_energy
.   Initial    0.000000    -3652.86134124936962
.    Trial1    0.270558    -3652.86141087612441
.    Trial2    0.549180    -3652.86134662788390
. Quadratic    0.280101    -3652.86141095498851    -3652.86141095704761

--------------------------------------------------------------------------------
  Iter                              Commutator    Free_energy(A=E-TS)     DeltaA
#    4                          0.000006867705   -3652.86141095498851  -6.97E-05

Step                       =       0.280101455917
Energy                     =   -3652.861371651426
Entropy (-TS)              =      -0.000039303733
Free energy (A=E-TS)       =   -3652.861410954989
[...]
 C   160 -- C   385       -0.09      5.37000
 C   159 -- C   384       -0.09      5.37000
 C   158 -- C   383       -0.09      5.37000
 C   157 -- C   382       -0.09      5.37000
 C   156 -- C   381       -0.09      5.37000
 C   155 -- C   355       -0.10      5.37000
 C   154 -- C   354       -0.10      5.37000
 C   153 -- C   353       -0.10      5.37000
 C   152 -- C   352       -0.10      5.37000
 C   151 -- C   351       -0.10      5.37000
 C   140 -- C   335       -0.09      5.37000
 C   139 -- C   334       -0.09      5.37000
 C   138 -- C   333       -0.09      5.37000
 C   137 -- C   332       -0.09      5.37000
 C   136 -- C   331       -0.09      5.37000
 C   115 -- C   325       -0.09      5.37000
 C   114 -- C   324       -0.09      5.37000
 C   113 -- C   323       -0.09      5.37000
 C   112 -- C   322       -0.09      5.37000
 C   111 -- C   321       -0.09      5.37000
 C   219 -- C   569       -0.09      5.37202
 C   218 -- C   568       -0.09      5.37202
 C   217 -- C   567       -0.09      5.37202
 C   216 -- C   566       -0.09      5.37202
 C   250 -- C   540       -0.09      5.37202
 C   249 -- C   539       -0.09      5.37202
 C   248 -- C   538       -0.09      5.37202
 C   247 -- C   537       -0.09      5.37202
 C   246 -- C   536       -0.09      5.37202
 C   220 -- C   570       -0.09      5.37202
 C   285 -- C   580       -0.09      5.37202
 C   284 -- C   579       -0.09      5.37202
 C   283 -- C   578       -0.09      5.37202
 C   282 -- C   577       -0.09      5.37202
 C   281 -- C   576       -0.09      5.37202
 C   260 -- C   605       -0.09      5.37202
 C   259 -- C   604       -0.09      5.37202
 C   258 -- C   603       -0.09      5.37202
 C   257 -- C   602       -0.09      5.37202
 C   256 -- C   601       -0.09      5.37202
 C   220 -- C   515       -0.09      5.37202
 C   219 -- C   514       -0.09      5.37202
 C   218 -- C   513       -0.09      5.37202
 C   217 -- C   512       -0.09      5.37202
 C   216 -- C   511       -0.09      5.37202
 C   195 -- C   540       -0.09      5.37202
 C   195 -- C   500       -0.09      5.37202
 C   194 -- C   539       -0.09      5.37202
 C   194 -- C   499       -0.09      5.37202
 C   193 -- C   538       -0.09      5.37202
 C   193 -- C   498       -0.09      5.37202
 C   192 -- C   537       -0.09      5.37202
 C   192 -- C   497       -0.09      5.37202
 C   191 -- C   536       -0.09      5.37202
 C   191 -- C   496       -0.09      5.37202
 C   180 -- C   515       -0.09      5.37202
 C   179 -- C   514       -0.09      5.37202
 C   178 -- C   513       -0.09      5.37202
 C   177 -- C   512       -0.09      5.37202
 C   176 -- C   511       -0.09      5.37202
 C    11 -- C   331       -0.09      5.37202
 C   205 -- C   550       -0.09      5.37202
 C   204 -- C   549       -0.09      5.37202
 C   203 -- C   548       -0.09      5.37202
 C   202 -- C   547       -0.09      5.37202
 C   201 -- C   546       -0.09      5.37202
 C    95 -- C   425       -0.09      5.37202
 C    95 -- C   365       -0.09      5.37202
 C    94 -- C   424       -0.09      5.37202
 C    94 -- C   364       -0.09      5.37202
 C    93 -- C   423       -0.09      5.37202
 C    93 -- C   363       -0.09      5.37202
 C    92 -- C   422       -0.09      5.37202
 C    92 -- C   362       -0.09      5.37202
 C    91 -- C   421       -0.09      5.37202
 C    91 -- C   361       -0.09      5.37202
 C    40 -- C   365       -0.09      5.37202
 C    39 -- C   364       -0.09      5.37202
 C    38 -- C   363       -0.09      5.37202
 C    37 -- C   362       -0.09      5.37202
 C    36 -- C   361       -0.09      5.37202
 C    15 -- C   335       -0.09      5.37202
 C    65 -- C   395       -0.09      5.37202
 C    65 -- C   345       -0.09      5.37202
 C    64 -- C   394       -0.09      5.37202
 C    64 -- C   344       -0.09      5.37202
 C    63 -- C   393       -0.09      5.37202
 C    30 -- C   355       -0.09      5.37202
 C    63 -- C   343       -0.09      5.37202
 C    62 -- C   392       -0.09      5.37202
 C    30 -- C   325       -0.09      5.37202
 C    14 -- C   334       -0.09      5.37202
 C    62 -- C   342       -0.09      5.37202
 C    61 -- C   391       -0.09      5.37202
 C    29 -- C   354       -0.09      5.37202
 C    61 -- C   341       -0.09      5.37202
 C    29 -- C   324       -0.09      5.37202
 C   260 -- C   550       -0.09      5.37202
 C   259 -- C   549       -0.09      5.37202
 C    28 -- C   353       -0.09      5.37202
 C   258 -- C   548       -0.09      5.37202
 C   257 -- C   547       -0.09      5.37202
 C   256 -- C   546       -0.09      5.37202
 C    28 -- C   323       -0.09      5.37202
 C    27 -- C   352       -0.09      5.37202
 C    13 -- C   333       -0.09      5.37202
 C    27 -- C   322       -0.09      5.37202
 C   120 -- C   395       -0.09      5.37202
 C    26 -- C   351       -0.09      5.37202
 C   119 -- C   394       -0.09      5.37202
 C   118 -- C   393       -0.09      5.37202
 C    55 -- C   335       -0.09      5.37202
 C   117 -- C   392       -0.09      5.37202
 C    26 -- C   321       -0.09      5.37202
 C   116 -- C   391       -0.09      5.37202
 C    54 -- C   334       -0.09      5.37202
 C    12 -- C   332       -0.09      5.37202
 C    53 -- C   333       -0.09      5.37202
 C   230 -- C   580       -0.09      5.37202
 C   230 -- C   525       -0.09      5.37202
 C   229 -- C   579       -0.09      5.37202
 C   229 -- C   524       -0.09      5.37202
 C   228 -- C   578       -0.09      5.37202
 C    52 -- C   332       -0.09      5.37202
 C   228 -- C   523       -0.09      5.37202
 C   227 -- C   577       -0.09      5.37202
 C   227 -- C   522       -0.09      5.37202
 C   226 -- C   576       -0.09      5.37202
 C   226 -- C   521       -0.09      5.37202
 C    51 -- C   331       -0.09      5.37202
 C    23 -- C   478       -0.09      5.37202
 C    49 -- C   469       -0.09      5.37202
 C    48 -- C   468       -0.09      5.37202
 C    47 -- C   467       -0.09      5.37202
 C    22 -- C   477       -0.09      5.37202
 C    46 -- C   466       -0.09      5.37202
 C    21 -- C   476       -0.09      5.37202
 C    85 -- C   355       -0.09      5.37202
 C    84 -- C   354       -0.09      5.37202
 C    83 -- C   353       -0.09      5.37202
 C    82 -- C   352       -0.09      5.37202
 C    81 -- C   351       -0.09      5.37202
 C    55 -- C   385       -0.09      5.37202
 C    54 -- C   384       -0.09      5.37202
 C    25 -- C   480       -0.09      5.37202
 C    53 -- C   383       -0.09      5.37202
 C    52 -- C   382       -0.09      5.37202
 C    51 -- C   381       -0.09      5.37202
 C    24 -- C   479       -0.09      5.37202
 C    50 -- C   470       -0.09      5.37202
 C    24 -- C   449       -0.09      5.37202
 C     6 -- C   416       -0.09      5.37202
 C    23 -- C   448       -0.09      5.37202
 C    22 -- C   447       -0.09      5.37202
 C    10 -- C   470       -0.09      5.37202
 C     5 -- C   450       -0.09      5.37202
 C    21 -- C   446       -0.09      5.37202
 C    10 -- C   420       -0.09      5.37202
 C     9 -- C   469       -0.09      5.37202
 C     9 -- C   419       -0.09      5.37202
 C     8 -- C   468       -0.09      5.37202
 C     4 -- C   449       -0.09      5.37202
 C   150 -- C   440       -0.09      5.37202
 C   149 -- C   439       -0.09      5.37202
 C   148 -- C   438       -0.09      5.37202
 C   147 -- C   437       -0.09      5.37202
 C     8 -- C   418       -0.09      5.37202
 C   146 -- C   436       -0.09      5.37202
 C     2 -- C   447       -0.09      5.37202
 C   135 -- C   460       -0.09      5.37202
 C     7 -- C   467       -0.09      5.37202
 C   134 -- C   459       -0.09      5.37202
 C   133 -- C   458       -0.09      5.37202
 C   132 -- C   457       -0.09      5.37202
 C   131 -- C   456       -0.09      5.37202
 C     7 -- C   417       -0.09      5.37202
 C     1 -- C   446       -0.09      5.37202
 C     6 -- C   466       -0.09      5.37202
 C    25 -- C   450       -0.09      5.37202
 C     3 -- C   448       -0.09      5.37202
 C   106 -- C   436       -0.09      5.37202
 C   106 -- C   376       -0.09      5.37202
 C    80 -- C   410       -0.09      5.37202
 C    79 -- C   409       -0.09      5.37202
 C    78 -- C   408       -0.09      5.37202
 C    77 -- C   407       -0.09      5.37202
 C    76 -- C   406       -0.09      5.37202
 C   135 -- C   410       -0.09      5.37202
 C   134 -- C   409       -0.09      5.37202
 C   133 -- C   408       -0.09      5.37202
 C   132 -- C   407       -0.09      5.37202
 C   131 -- C   406       -0.09      5.37202
 C   110 -- C   440       -0.09      5.37202
 C   110 -- C   380       -0.09      5.37202
 C   109 -- C   439       -0.09      5.37202
 C   109 -- C   379       -0.09      5.37202
 C   108 -- C   438       -0.09      5.37202
 C   108 -- C   378       -0.09      5.37202
 C   107 -- C   437       -0.09      5.37202
 C   107 -- C   377       -0.09      5.37202
 C   215 -- C   635       -0.10      5.38000
 C   214 -- C   634       -0.10      5.38000
 C   213 -- C   633       -0.10      5.38000
 C   212 -- C   632       -0.10      5.38000
 C   211 -- C   631       -0.10      5.38000
 C   190 -- C   620       -0.10      5.38000
 C   189 -- C   619       -0.10      5.38000
 C   188 -- C   618       -0.10      5.38000
 C   187 -- C   617       -0.10      5.38000
 C   186 -- C   616       -0.10      5.38000
 C   175 -- C   595       -0.10      5.38000
 C   174 -- C   594       -0.10      5.38000
 C   173 -- C   593       -0.10      5.38000
 C   172 -- C   592       -0.10      5.38000
 C   171 -- C   591       -0.10      5.38000
 C   245 -- C   640       -0.09      5.38000
 C   244 -- C   639       -0.09      5.38000
 C   243 -- C   638       -0.09      5.38000
 C   242 -- C   637       -0.09      5.38000
 C   241 -- C   636       -0.09      5.38000
==================================================


=================== Orbital energy and occupancy information ===================

      Total number of orbitals:    2560
        Occupancy sum (kernel):    1280.000000000
   Occupancy sum (eigenvalues):    1280.000000000
                 HOMO-LUMO gap:       0.062273248 Eh
                 Mid-gap level:       0.278955555 Eh

                        Orbital | Energy (Eh) | Occupancy
                            1    -0.446844734   1.0000000
                        .......   ...........   .........
                         1271     0.242554927   0.9999869
                         1272     0.242554927   0.9999869
                         1273     0.243025259   0.9999848
                         1274     0.243025259   0.9999848
                         1275     0.246855939   0.9999490
                         1276     0.246855939   0.9999490
                         1277     0.247297750   0.9999414
                         1278     0.247297750   0.9999414
                         1279     0.247395109   0.9999395
                         1280     0.247818931   0.9999308
                        ....... -- gap at 0K -- .........
                         1281     0.310092179   0.0000416
                         1282     0.310092179   0.0000416
                         1283     0.310344871   0.0000384
                         1284     0.310344871   0.0000384
                         1285     0.311307496   0.0000284
                         1286     0.311307496   0.0000284
                         1287     0.311578582   0.0000261
                         1288     0.311578582   0.0000261
                         1289     0.312080542   0.0000223
                         1290     0.312139425   0.0000217
                        .......   ...........   .........
                         2560     1.168013315   0.0000000

================================================================================

===================== Writing canonical molecular orbitals =====================
| Orbital  Energy (eV)  Norm     |
| HOMO      6.74349625  1.000000 | Writing "3.21716088_GO_manual_4x64graphite_HOMO.cube" ... done
Writing "3.21716088_GO_manual_4x64graphite_HOMO.dx" ... done
| LUMO      8.43803756  1.000000 | Writing "3.21716088_GO_manual_4x64graphite_LUMO.cube" ... done
Writing "3.21716088_GO_manual_4x64graphite_LUMO.dx" ... done
================================================================================
 
===================== Density of States (DOS) calculation ======================
Writing "3.21716088_GO_manual_4x64graphite_DOS.txt" ...  done
================================================================================
 
Writing bands to file "3.21716088_GO_manual_4x64graphite.val_bands" ... done
 
================ Projected Density of States (pDOS) calculation ================
 
Constructing AM resolved functions  ...... done
Writing NGWF plot files in formats: CUBE DX ...  done
 
Performing overlap integrals ...  done
 
Computing pDOS weights ...  done
 
All bands spilling parameter =   3.93 %
Occupancy-weighted spilling parameter =   0.83 %
 
 => Outputting data for OptaDOS <=
 
Writing pDOS weights to file "3.21716088_GO_manual_4x64graphite.val_pdos_bin" ... done
 
Writing band gradients to file "3.21716088_GO_manual_4x64graphite.val_dome_bin" ... done
 
Writing Castep output cell file to "3.21716088_GO_manual_4x64graphite-out.cell" ... done
 
 => Computing Gaussian smeared pDOS <= 
Writing "3.21716088_GO_manual_4x64graphite_PDOS.txt" ...  done
 
 => Computing Occupancy-weighted Gaussian smeared pDOS <= 
Writing "3.21716088_GO_manual_4x64graphite_occ_PDOS.txt" ...  done
  => Band centres: 
 S band centre of group 1:  -13.834555 eV
 P band centre of group 1:   -6.728321 eV
  Band centres done. <=
  => Integrated number of electrons in each AM band: 
 S num electrons of group 1:  574.443420
 P num electrons of group 1: 1964.220397
  Integrated number of electrons done. <=
================================================================================

------------------------------ TIMING INFORMATION ------------------------------
AVERAGE TIME:    4498.142s on     40 node(s)                                    
TOTAL TIME:      4498.143s on     40 node(s)                                    
================= AVERAGE TIMINGS FROM ALL NODES (CUMULATIVE) ==================
|| TAG                                    #calls    cpu time   %total  Gflops ||
|| work_imbalance                       :     1        0.00s   0.000%  ------ ||
|| paw_tcore_hartree_on_grid            :     1        0.01s   0.000%  ------ ||
|| paw_tcore_density                    :     1        0.01s   0.000%  ------ ||
|| paw_sphere_density_on_grid           :     1        0.01s   0.000%  ------ ||
|| sparse_set_to_garbage                :   183        0.03s   0.001%  ------ ||
|| pseudo_make_structure_factor         :     1        0.05s   0.001%  ------ ||
|| paw_dij_hartree                      :   405        0.05s   0.001%  ------ ||
|| basis_extract_function_from_box      :  2048        0.09s   0.002%  ------ ||
|| paw_species_calc_proj_prec_mat       :     1        0.12s   0.003%  ------ ||
|| paw_dataset_init                     :     1        0.19s   0.004%  ------ ||
|| density_init_guess_real              :     1        0.27s   0.006%  ------ ||
|| ngwfs_initialise_from_radial         :     2        0.67s   0.015%  ------ ||
|| restart_kernel_write                 :    17        0.84s   0.019%  ------ ||
|| sparse_init                          :     1        0.99s   0.022%  ------ ||
|| hartree_on_grid                      :   303        1.20s   0.027%  ------ ||
|| dense_normal_eigensolve              :     1        1.27s   0.028%  ------ ||
|| ewald_calculate_energy               :     1        2.39s   0.053%  ------ ||
|| projectors_init_fftbox_recip         :   161        3.11s   0.069%  ------ ||
|| fourier_apply_box_pair               :  3040        5.02s   0.112% 561.409 ||
|| basis_copy_function_to_box           : 28672        6.20s   0.138%  ------ ||
|| augmentation_screen_dij              :   310        6.68s   0.148%  ------ ||
|| sw_init                              :     1        6.74s   0.150%  ------ ||
|| sparse_embed_hotelling_invert_embed  :    31        9.00s   0.200%  ------ ||
|| ngwf_gradient_coeffs                 :    16       12.76s   0.284%  ------ ||
|| cell_grid_extract_box_real           : 12204       15.43s   0.343%  ------ ||
|| fourier_apply_cell_forward           :  8759       15.75s   0.350%  62.487 ||
|| fourier_apply_cell_backward          :  9364       15.79s   0.351%  66.644 ||
|| sparse_trace                         :  3680       21.61s   0.481%  ------ ||
|| cell_grid_deposit_box_real           : 38960       26.34s   0.586%  ------ ||
|| paw_dij_xc                           :   405       29.05s   0.646%  ------ ||
|| aug_nonlocal_mat                     :   389       43.13s   0.959%  ------ ||
|| eigenstates_pdos                     :     1       48.15s   1.070%  ------ ||
|| eigenstates_calculate                :     1       51.92s   1.154%  ------ ||
|| density_fftbox_deposit_to_cell       : 19392       53.82s   1.197%  ------ ||
|| augmentation_density_on_grid         :   303       58.73s   1.306%  ------ ||
|| hamiltonian_energy_components        :     4       67.41s   1.499%  ------ ||
|| function_ops_brappd_ketppd           :    64       67.92s   1.510%  ------ ||
|| projectors_func_ovlp_box             :    32       78.29s   1.741%  ------ ||
|| nlxc_vdw_energy                      :   604       78.54s   1.746%  ------ ||
|| xc_energy_potential                  :   302       80.43s   1.788%  ------ ||
|| properties_calculate                 :     1       92.62s   2.059%  ------ ||
|| restart_ngwfs_tightbox_output        :    15      116.19s   2.583%  ------ ||
|| integrals_kinetic                    :    31      118.63s   2.637%  ------ ||
|| dense_eigensolve                     :   267      125.15s   2.782%  ------ ||
|| potential_apply_to_ngwf_batch        :   388      153.73s   3.418%  ------ ||
|| sparse_product                       :  3665      164.03s   3.647%  ------ ||
|| basis_dot_function_with_box          : 9.556M     256.87s   5.711%  ------ ||
|| fourier_apply_box                    : 89872      279.90s   6.223% 980.977 ||
|| edft_diag_ngwf_ham                   :   266      288.48s   6.413%  ------ ||
|| projectors_gradient_batch            :    64      298.66s   6.640%  ------ ||
|| integrals_locpot_mat_els_batch       :   388      368.94s   8.202%  ------ ||
|| density_fftbox_interpolate_multiply  : 19392      375.94s   8.358%  ------ ||
|| projectors_grad_precond_batch        :    64      442.33s   9.834%  ------ ||
|| density_batch_interp_deposit         :  1212      478.96s  10.648%  ------ ||
|| integrals_locpot_dbl_grid            :    97      524.67s  11.664%  ------ ||
|| edft_apply_smearing_operator         :   266      570.45s  12.682%  ------ ||
|| basis_add_function_to_box            : 26.68M     685.43s  15.238%  ------ ||
|| ngwf_gradient_build_batch            :    64      789.45s  17.550%  ------ ||
|| ngwf_gradient_batch                  :    64     1043.60s  23.201%  ------ ||
|| density_batch_row_sums               :  1212     1044.01s  23.210%  ------ ||
|| ngwf_gradient_lnv                    :    16     1074.73s  23.893%  ------ ||
|| density_on_dbl_grid                  :   303     1538.29s  34.198%  ------ ||
|| hamiltonian_lhxc_calculate           :   297     1655.09s  36.795%  ------ ||
|| edft_calculate                       :    16     2737.13s  60.850%  ------ ||
|| ngwf_cg_optimise                     :     1     4384.46s  97.473%  ------ ||
|| total_time                           :     1     4498.14s 100.000%  ------ ||
================================================================================
Overhead of generating timer report: 
- 0 ms averaging over threads,
- 5 ms ensuring consistency across MPI ranks,
- 0 ms printing in order.

Job completed: 21-02-2020 14:16 (-0000)

