 +---------------------------------------------------------------+
 |                                                               |
 |        ####### #     # ####### ####### ####### ######         |
 |        #     # ##    # #          #    #       #     #        |
 |        #     # # #   # #          #    #       #     #        |
 |        #     # #  #  # #####      #    #####   ######         |
 |        #     # #   # # #          #    #       #              |
 |        #     # #    ## #          #    #       #              |
 |        ####### #     # #######    #    ####### #              |
 |                                                               |
 |        Linear-Scaling Ab Initio Total Energy Program          |
 |                                                               |
 |          Release for academic collaborators of ODG            |
 |                                             Version 5.3.2.12  |
 |                                                               |
 +---------------------------------------------------------------+
 |                                                               |
 |  Authors:                                                     |
 |  Jacek Dziedzic, Peter D. Haynes, Nicholas D. M. Hine,        |
 |  Arash. A. Mostofi, Mike C. Payne and Chris-Kriton Skylaris   |
 |                                                               |
 |  Contributors:                                                |
 |  J. Aarons, L. Andrinopoulos, P. W. Avraam, R. A. Bell,       |
 |  A. Bhandari, G. A. Bramley, R. J. Charlton, S. J. Clark,     |
 |  R. J. Clements, G. C. Constantinescu, F. Corsetti,           |
 |  N. Corsini, O. Dieguez, S. M. M. Dubois, K. K. B. Duff,      |
 |  J. M. Escartin, A. Greco, H. Helal, Q. O. Hill, L. P. Lee,   |
 |  J.-H. Li, E. B. Linscott, G. Moynihan, D. D. O`Regan,        |
 |  O. K. Okan, M. J. S. Phipps, C. J. Pickard,                  |
 |  J. C. A. Prentice, M. I. J. Probert, L. E. Ratcliff,         |
 |  M. Robinson, A. Ruiz Serrano, J. S. Spencer, E. W. Tait,     |
 |  G. Teobaldi, D. Turban, V. Vitale, K. A. Wilkinson,          |
 |  C. Weber, J. C. Womack, N. Yeung and T. J. Zuehlsdorff       |
 |                                                               |
 |                                   Copyright (c) 2004-2020     |
 |                                                               |
 |  Please cite:                                                 |
 |  "Introducing ONETEP: Linear-scaling density functional       |
 |   simulations on parallel computers".                         |
 |   C.-K. Skylaris, P. D. Haynes, A. A. Mostofi, M. C. Payne.   |
 |   J. Chem. Phys. 122 084119 (2005).                           |
 |                                                               |
 |          in all publications arising from your use of ONETEP. |
 |                                                               |
 +---------------------------------------------------------------+
 |                                                               |
 |   ONETEP is based on developments described in the following  |
 |   publications:                                               |
 |                                                               |
 |  "Nonorthogonal generalized Wannier function pseudopotential  |
 |   plane-wave method".                                         |
 |   C.-K. Skylaris, A. A. Mostofi, P. D. Haynes, O. Dieguez,    |
 |   M. C. Payne.                                                |
 |   Phys. Rev. B 66 035119 (2002).                              |
 |                                                               |
 |  "Preconditioned iterative minimization for linear-scaling    |
 |   electronic structure calculations".                         |
 |   A. A. Mostofi, P. D. Haynes, C.-K. Skylaris, M. C. Payne.   |
 |   J. Chem. Phys. 119(17), pp.8842-8848 (2003).                |
 |                                                               |
 |  "Total-energy calculations on a real space grid with         |
 |   localized functions and a plane-wave basis".                |
 |   A. A. Mostofi, C.-K. Skylaris, P. D. Haynes, M. C. Payne.   |
 |   Comput. Phys. Commun. 147, pp.788-802 (2002).               |
 |                                                               |
 |  "Accurate kinetic energy evaluation in electronic structure  |
 |   calculations with localized functions on real space grids"  |
 |   C.-K. Skylaris, A. A. Mostofi, P. D. Haynes, C. J. Pickard, |
 |   M. C. Payne.                                                |
 |   Comput. Phys. Commun. 140, pp.315-322 (2001).               |
 |                                                               |
 |  "Accurate ionic forces and geometry optimization in linear-  |
 |   scaling density-functional theory with local orbitals"      |
 |   N. D. M. Hine, M. Robinson, P. D. Haynes, C.-K. Skylaris,   |
 |   M. C. Payne, and A. A. Mostofi.                             |
 |   Phys. Rev. B 83 195102 (2011).                              |
 |                                                               |
 +---------------------------------------------------------------+

Job started: 21-02-2020 14:12 (-0000)
 
Reading parameters from file "3.4344936_GO_manual_4x64graphite.dat" ...

WARNING: "cutoff_energy" not specified, but "psinc_spacing" specified.
         Using the latter to set the KE cutoff energy to  732.32021eV,
         thus *overriding* the default.

... done

If your calculation crashes here, before "Checking processes and threads..."
is displayed, then your stack size is insufficient.
If so, use "ulimit -s unlimited" at runtime.
You can disable this check with "check_stack_size F".

Checking processes and threads...
   Determining the default number of threads...
      No default threads set at compilation time: defaulting to 1.
      OpenMP library call suggests 4 threads.
      Hybrid MPI-OpenMP compilation detected.
      Number of MPI processes > 1.
      OMP_NUM_THREADS environment variable present and
      its value matches the one obtained from the OpenMP library call.
      Using this value as default.
      Default threads: 4
      Default applies to threads_max and threads_num_fftboxes.
      Settings in the input file override this default.
   ... done

   Running with 40 MPI processes.
   There are 10 MPI processes running on the same node as the root process.
   Each MPI process is using: 
               1 threads for simulation cell FFTs.
               1 threads for parallel FFT box operations.
               4 threads for loops over batched FFT box operations.
               4 threads in other parallel regions.
... done

Basic input checks...
Resetting ngwf_cg_rotate to TRUE for EDFT calculations
... done

Reading geometry and species blocks from file "3.4344936_GO_manual_4x64graphite.dat" ...
    
  PSINC grid spacing along a1 set to   0.511215680000a0 from input file.
  PSINC grid spacing along a2 set to   0.531284090000a0 from input file.
  PSINC grid spacing along a3 set to   0.507052000000a0 from input file.
  Number of PPD points along a3 set to 1.  This is 
  the default value, it may have been provided also in the input file.
... done
 Writing xyz coordinates to file "3.4344936_GO_manual_4x64graphite.xyz" ... done


--------------------------------------------------------------------------------
---------------------------------- INPUT FILE ----------------------------------
--------------------------------------------------------------------------------

task : singlepoint                                                              
do_properties : true                                                            
dx_format T                                                                     
edft T                                                                          
output_detail VERBOSE                                                           
write_xyz T                                                                     
xc_functional VV10                                                              
PSINC_SPACING 0.51121568 0.53128409 0.50705200                                  
paw T                                                                           
pdos_max_l = 2                                                                  
dos_smear  0.1 eV                                                               
popn_calculate T                                                                
PDOS_PSEUDOATOMIC T                                                             
PDOS_REDUCE_SWS F                                                               
PDOS_CONSTRUCT_BASIS F                                                          
PDOS_LOWDIN T                                                                   
PDOS_ORTH_ATOM_BLOCKS F                                                         
PDOS_LCAO_OPTIMIZE F                                                            
pdos_optados_output T                                                           
homo_plot 0                                                                     
lumo_plot 0                                                                     
homo_dens_plot -1                                                               
lumo_dens_plot -1                                                               
%BLOCK SPECIES                                                                  
C C 6 4 9.0                                                                     
%ENDBLOCK SPECIES                                                               
%BLOCK SPECIES_POT                                                              
C "~/pp/paw/c_pbe_abinit.paw"                                                   
%ENDBLOCK SPECIES_POT                                                           
%BLOCK SPECIES_ATOMIC_SET                                                       
C "SOLVE conf=2s2 2p2"                                                          
%ENDBLOCK SPECIES_ATOMIC_SET                                                    
%BLOCK LATTICE_CART                                                             
32.21  0.00  0.00                                                               
0.00 18.59  0.00                                                                
0.00  0.00 64.90                                                                
%ENDBLOCK LATTICE_CART                                                          
%BLOCK POSITIONS_ABS                                                            
C  0.00  0.00  3.25                                                             
C  0.00  0.00 16.23                                                             
C  0.00  0.00 29.21                                                             
C  0.00  0.00 42.19                                                             
C  0.00  0.00 55.17                                                             
C  0.00  4.65  3.25                                                             
C  0.00  4.65 16.23                                                             
C  0.00  4.65 29.21                                                             
C  0.00  4.65 42.19                                                             
C  0.00  4.65 55.17                                                             
C  4.03  2.32  3.25                                                             
C  4.03  2.32 16.23                                                             
C  4.03  2.32 29.21                                                             
C  4.03  2.32 42.19                                                             
C  4.03  2.32 55.17                                                             
C  8.05  0.00  3.25                                                             
C  8.05  0.00 16.23                                                             
C  8.05  0.00 29.21                                                             
C  8.05  0.00 42.19                                                             
C  8.05  0.00 55.17                                                             
C  0.00  9.30  3.25                                                             
C  0.00  9.30 16.23                                                             
C  0.00  9.30 29.21                                                             
C  0.00  9.30 42.19                                                             
C  0.00  9.30 55.17                                                             
C  4.03  6.97  3.25                                                             
C  4.03  6.97 16.23                                                             
C  4.03  6.97 29.21                                                             
C  4.03  6.97 42.19                                                             
C  4.03  6.97 55.17                                                             
C  8.05  4.65  3.25                                                             
C  8.05  4.65 16.23                                                             
C  8.05  4.65 29.21                                                             
C  8.05  4.65 42.19                                                             
C  8.05  4.65 55.17                                                             
C 12.08  2.32  3.25                                                             
C 12.08  2.32 16.23                                                             
C 12.08  2.32 29.21                                                             
C 12.08  2.32 42.19                                                             
C 12.08  2.32 55.17                                                             
C 16.10  0.00  3.25                                                             
C 16.10  0.00 16.23                                                             
C 16.10  0.00 29.21                                                             
C 16.10  0.00 42.19                                                             
C 16.10  0.00 55.17                                                             
C  0.00 13.95  3.25                                                             
C  0.00 13.95 16.23                                                             
C  0.00 13.95 29.21                                                             
C  0.00 13.95 42.19                                                             
C  0.00 13.95 55.17                                                             
C  4.03 11.62  3.25                                                             
C  4.03 11.62 16.23                                                             
C  4.03 11.62 29.21                                                             
C  4.03 11.62 42.19                                                             
C  4.03 11.62 55.17                                                             
C  8.05  9.30  3.25                                                             
C  8.05  9.30 16.23                                                             
C  8.05  9.30 29.21                                                             
C  8.05  9.30 42.19                                                             
C  8.05  9.30 55.17                                                             
C 12.08  6.97  3.25                                                             
C 12.08  6.97 16.23                                                             
C 12.08  6.97 29.21                                                             
C 12.08  6.97 42.19                                                             
C 12.08  6.97 55.17                                                             
C 16.10  4.65  3.25                                                             
C 16.10  4.65 16.23                                                             
C 16.10  4.65 29.21                                                             
C 16.10  4.65 42.19                                                             
C 16.10  4.65 55.17                                                             
C 20.13  2.32  3.25                                                             
C 20.13  2.32 16.23                                                             
C 20.13  2.32 29.21                                                             
C 20.13  2.32 42.19                                                             
C 20.13  2.32 55.17                                                             
C 24.16  0.00  3.25                                                             
C 24.16  0.00 16.23                                                             
C 24.16  0.00 29.21                                                             
C 24.16  0.00 42.19                                                             
C 24.16  0.00 55.17                                                             
C  4.03 16.27  3.25                                                             
C  4.03 16.27 16.23                                                             
C  4.03 16.27 29.21                                                             
C  4.03 16.27 42.19                                                             
C  4.03 16.27 55.17                                                             
C  8.05 13.95  3.25                                                             
C  8.05 13.95 16.23                                                             
C  8.05 13.95 29.21                                                             
C  8.05 13.95 42.19                                                             
C  8.05 13.95 55.17                                                             
C 12.08 11.62  3.25                                                             
C 12.08 11.62 16.23                                                             
C 12.08 11.62 29.21                                                             
C 12.08 11.62 42.19                                                             
C 12.08 11.62 55.17                                                             
C 16.10  9.30  3.25                                                             
C 16.10  9.30 16.23                                                             
C 16.10  9.30 29.21                                                             
C 16.10  9.30 42.19                                                             
C 16.10  9.30 55.17                                                             
C 20.13  6.97  3.25                                                             
C 20.13  6.97 16.23                                                             
C 20.13  6.97 29.21                                                             
C 20.13  6.97 42.19                                                             
C 20.13  6.97 55.17                                                             
C 24.16  4.65  3.25                                                             
C 24.16  4.65 16.23                                                             
C 24.16  4.65 29.21                                                             
C 24.16  4.65 42.19                                                             
C 24.16  4.65 55.17                                                             
C 28.18  2.32  3.25                                                             
C 28.18  2.32 16.23                                                             
C 28.18  2.32 29.21                                                             
C 28.18  2.32 42.19                                                             
C 28.18  2.32 55.17                                                             
C 12.08 16.27  3.25                                                             
C 12.08 16.27 16.23                                                             
C 12.08 16.27 29.21                                                             
C 12.08 16.27 42.19                                                             
C 12.08 16.27 55.17                                                             
C 16.10 13.95  3.25                                                             
C 16.10 13.95 16.23                                                             
C 16.10 13.95 29.21                                                             
C 16.10 13.95 42.19                                                             
C 16.10 13.95 55.17                                                             
C 20.13 11.62  3.25                                                             
C 20.13 11.62 16.23                                                             
C 20.13 11.62 29.21                                                             
C 20.13 11.62 42.19                                                             
C 20.13 11.62 55.17                                                             
C 24.16  9.30  3.25                                                             
C 24.16  9.30 16.23                                                             
C 24.16  9.30 29.21                                                             
C 24.16  9.30 42.19                                                             
C 24.16  9.30 55.17                                                             
C 28.18  6.97  3.25                                                             
C 28.18  6.97 16.23                                                             
C 28.18  6.97 29.21                                                             
C 28.18  6.97 42.19                                                             
C 28.18  6.97 55.17                                                             
C 20.13 16.27  3.25                                                             
C 20.13 16.27 16.23                                                             
C 20.13 16.27 29.21                                                             
C 20.13 16.27 42.19                                                             
C 20.13 16.27 55.17                                                             
C 24.16 13.95  3.25                                                             
C 24.16 13.95 16.23                                                             
C 24.16 13.95 29.21                                                             
C 24.16 13.95 42.19                                                             
C 24.16 13.95 55.17                                                             
C 28.18 11.62  3.25                                                             
C 28.18 11.62 16.23                                                             
C 28.18 11.62 29.21                                                             
C 28.18 11.62 42.19                                                             
C 28.18 11.62 55.17                                                             
C 28.18 16.27  3.25                                                             
C 28.18 16.27 16.23                                                             
C 28.18 16.27 29.21                                                             
C 28.18 16.27 42.19                                                             
C 28.18 16.27 55.17                                                             
C  0.00  0.00  9.74                                                             
C  0.00  0.00 22.72                                                             
C  0.00  0.00 35.70                                                             
C  0.00  0.00 48.68                                                             
C  0.00  0.00 61.66                                                             
C  0.00  4.65  9.74                                                             
C  0.00  4.65 22.72                                                             
C  0.00  4.65 35.70                                                             
C  0.00  4.65 48.68                                                             
C  0.00  4.65 61.66                                                             
C  4.03  2.32  9.74                                                             
C  4.03  2.32 22.72                                                             
C  4.03  2.32 35.70                                                             
C  4.03  2.32 48.68                                                             
C  4.03  2.32 61.66                                                             
C  8.05  0.00  9.74                                                             
C  8.05  0.00 22.72                                                             
C  8.05  0.00 35.70                                                             
C  8.05  0.00 48.68                                                             
C  8.05  0.00 61.66                                                             
C  0.00  9.30  9.74                                                             
C  0.00  9.30 22.72                                                             
C  0.00  9.30 35.70                                                             
C  0.00  9.30 48.68                                                             
C  0.00  9.30 61.66                                                             
C  4.03  6.97  9.74                                                             
C  4.03  6.97 22.72                                                             
C  4.03  6.97 35.70                                                             
C  4.03  6.97 48.68                                                             
C  4.03  6.97 61.66                                                             
C  8.05  4.65  9.74                                                             
C  8.05  4.65 22.72                                                             
C  8.05  4.65 35.70                                                             
C  8.05  4.65 48.68                                                             
C  8.05  4.65 61.66                                                             
C 12.08  2.32  9.74                                                             
C 12.08  2.32 22.72                                                             
C 12.08  2.32 35.70                                                             
C 12.08  2.32 48.68                                                             
C 12.08  2.32 61.66                                                             
C 16.10  0.00  9.74                                                             
C 16.10  0.00 22.72                                                             
C 16.10  0.00 35.70                                                             
C 16.10  0.00 48.68                                                             
C 16.10  0.00 61.66                                                             
C  0.00 13.95  9.74                                                             
C  0.00 13.95 22.72                                                             
C  0.00 13.95 35.70                                                             
C  0.00 13.95 48.68                                                             
C  0.00 13.95 61.66                                                             
C  4.03 11.62  9.74                                                             
C  4.03 11.62 22.72                                                             
C  4.03 11.62 35.70                                                             
C  4.03 11.62 48.68                                                             
C  4.03 11.62 61.66                                                             
C  8.05  9.30  9.74                                                             
C  8.05  9.30 22.72                                                             
C  8.05  9.30 35.70                                                             
C  8.05  9.30 48.68                                                             
C  8.05  9.30 61.66                                                             
C 12.08  6.97  9.74                                                             
C 12.08  6.97 22.72                                                             
C 12.08  6.97 35.70                                                             
C 12.08  6.97 48.68                                                             
C 12.08  6.97 61.66                                                             
C 16.10  4.65  9.74                                                             
C 16.10  4.65 22.72                                                             
C 16.10  4.65 35.70                                                             
C 16.10  4.65 48.68                                                             
C 16.10  4.65 61.66                                                             
C 20.13  2.32  9.74                                                             
C 20.13  2.32 22.72                                                             
C 20.13  2.32 35.70                                                             
C 20.13  2.32 48.68                                                             
C 20.13  2.32 61.66                                                             
C 24.16  0.00  9.74                                                             
C 24.16  0.00 22.72                                                             
C 24.16  0.00 35.70                                                             
C 24.16  0.00 48.68                                                             
C 24.16  0.00 61.66                                                             
C  4.03 16.27  9.74                                                             
C  4.03 16.27 22.72                                                             
C  4.03 16.27 35.70                                                             
C  4.03 16.27 48.68                                                             
C  4.03 16.27 61.66                                                             
C  8.05 13.95  9.74                                                             
C  8.05 13.95 22.72                                                             
C  8.05 13.95 35.70                                                             
C  8.05 13.95 48.68                                                             
C  8.05 13.95 61.66                                                             
C 12.08 11.62  9.74                                                             
C 12.08 11.62 22.72                                                             
C 12.08 11.62 35.70                                                             
C 12.08 11.62 48.68                                                             
C 12.08 11.62 61.66                                                             
C 16.10  9.30  9.74                                                             
C 16.10  9.30 22.72                                                             
C 16.10  9.30 35.70                                                             
C 16.10  9.30 48.68                                                             
C 16.10  9.30 61.66                                                             
C 20.13  6.97  9.74                                                             
C 20.13  6.97 22.72                                                             
C 20.13  6.97 35.70                                                             
C 20.13  6.97 48.68                                                             
C 20.13  6.97 61.66                                                             
C 24.16  4.65  9.74                                                             
C 24.16  4.65 22.72                                                             
C 24.16  4.65 35.70                                                             
C 24.16  4.65 48.68                                                             
C 24.16  4.65 61.66                                                             
C 28.18  2.32  9.74                                                             
C 28.18  2.32 22.72                                                             
C 28.18  2.32 35.70                                                             
C 28.18  2.32 48.68                                                             
C 28.18  2.32 61.66                                                             
C 12.08 16.27  9.74                                                             
C 12.08 16.27 22.72                                                             
C 12.08 16.27 35.70                                                             
C 12.08 16.27 48.68                                                             
C 12.08 16.27 61.66                                                             
C 16.10 13.95  9.74                                                             
C 16.10 13.95 22.72                                                             
C 16.10 13.95 35.70                                                             
C 16.10 13.95 48.68                                                             
C 16.10 13.95 61.66                                                             
C 20.13 11.62  9.74                                                             
C 20.13 11.62 22.72                                                             
C 20.13 11.62 35.70                                                             
C 20.13 11.62 48.68                                                             
C 20.13 11.62 61.66                                                             
C 24.16  9.30  9.74                                                             
C 24.16  9.30 22.72                                                             
C 24.16  9.30 35.70                                                             
C 24.16  9.30 48.68                                                             
C 24.16  9.30 61.66                                                             
C 28.18  6.97  9.74                                                             
C 28.18  6.97 22.72                                                             
C 28.18  6.97 35.70                                                             
C 28.18  6.97 48.68                                                             
C 28.18  6.97 61.66                                                             
C 20.13 16.27  9.74                                                             
C 20.13 16.27 22.72                                                             
C 20.13 16.27 35.70                                                             
C 20.13 16.27 48.68                                                             
C 20.13 16.27 61.66                                                             
C 24.16 13.95  9.74                                                             
C 24.16 13.95 22.72                                                             
C 24.16 13.95 35.70                                                             
C 24.16 13.95 48.68                                                             
C 24.16 13.95 61.66                                                             
C 28.18 11.62  9.74                                                             
C 28.18 11.62 22.72                                                             
C 28.18 11.62 35.70                                                             
C 28.18 11.62 48.68                                                             
C 28.18 11.62 61.66                                                             
C 28.18 16.27  9.74                                                             
C 28.18 16.27 22.72                                                             
C 28.18 16.27 35.70                                                             
C 28.18 16.27 48.68                                                             
C 28.18 16.27 61.66                                                             
C  1.34  2.32  3.25                                                             
C  1.34  2.32 16.23                                                             
C  1.34  2.32 29.21                                                             
C  1.34  2.32 42.19                                                             
C  1.34  2.32 55.17                                                             
C  5.37  0.00  3.25                                                             
C  5.37  0.00 16.23                                                             
C  5.37  0.00 29.21                                                             
C  5.37  0.00 42.19                                                             
C  5.37  0.00 55.17                                                             
C  1.34  6.97  3.25                                                             
C  1.34  6.97 16.23                                                             
C  1.34  6.97 29.21                                                             
C  1.34  6.97 42.19                                                             
C  1.34  6.97 55.17                                                             
C  5.37  4.65  3.25                                                             
C  5.37  4.65 16.23                                                             
C  5.37  4.65 29.21                                                             
C  5.37  4.65 42.19                                                             
C  5.37  4.65 55.17                                                             
C  9.39  2.32  3.25                                                             
C  9.39  2.32 16.23                                                             
C  9.39  2.32 29.21                                                             
C  9.39  2.32 42.19                                                             
C  9.39  2.32 55.17                                                             
C 13.42  0.00  3.25                                                             
C 13.42  0.00 16.23                                                             
C 13.42  0.00 29.21                                                             
C 13.42  0.00 42.19                                                             
C 13.42  0.00 55.17                                                             
C  1.34 11.62  3.25                                                             
C  1.34 11.62 16.23                                                             
C  1.34 11.62 29.21                                                             
C  1.34 11.62 42.19                                                             
C  1.34 11.62 55.17                                                             
C  5.37  9.30  3.25                                                             
C  5.37  9.30 16.23                                                             
C  5.37  9.30 29.21                                                             
C  5.37  9.30 42.19                                                             
C  5.37  9.30 55.17                                                             
C  9.39  6.97  3.25                                                             
C  9.39  6.97 16.23                                                             
C  9.39  6.97 29.21                                                             
C  9.39  6.97 42.19                                                             
C  9.39  6.97 55.17                                                             
C 13.42  4.65  3.25                                                             
C 13.42  4.65 16.23                                                             
C 13.42  4.65 29.21                                                             
C 13.42  4.65 42.19                                                             
C 13.42  4.65 55.17                                                             
C 17.45  2.32  3.25                                                             
C 17.45  2.32 16.23                                                             
C 17.45  2.32 29.21                                                             
C 17.45  2.32 42.19                                                             
C 17.45  2.32 55.17                                                             
C 21.47  0.00  3.25                                                             
C 21.47  0.00 16.23                                                             
C 21.47  0.00 29.21                                                             
C 21.47  0.00 42.19                                                             
C 21.47  0.00 55.17                                                             
C  1.34 16.27  3.25                                                             
C  1.34 16.27 16.23                                                             
C  1.34 16.27 29.21                                                             
C  1.34 16.27 42.19                                                             
C  1.34 16.27 55.17                                                             
C  5.37 13.95  3.25                                                             
C  5.37 13.95 16.23                                                             
C  5.37 13.95 29.21                                                             
C  5.37 13.95 42.19                                                             
C  5.37 13.95 55.17                                                             
C  9.39 11.62  3.25                                                             
C  9.39 11.62 16.23                                                             
C  9.39 11.62 29.21                                                             
C  9.39 11.62 42.19                                                             
C  9.39 11.62 55.17                                                             
C 13.42  9.30  3.25                                                             
C 13.42  9.30 16.23                                                             
C 13.42  9.30 29.21                                                             
C 13.42  9.30 42.19                                                             
C 13.42  9.30 55.17                                                             
C 17.45  6.97  3.25                                                             
C 17.45  6.97 16.23                                                             
C 17.45  6.97 29.21                                                             
C 17.45  6.97 42.19                                                             
C 17.45  6.97 55.17                                                             
C 21.47  4.65  3.25                                                             
C 21.47  4.65 16.23                                                             
C 21.47  4.65 29.21                                                             
C 21.47  4.65 42.19                                                             
C 21.47  4.65 55.17                                                             
C 25.50  2.32  3.25                                                             
C 25.50  2.32 16.23                                                             
C 25.50  2.32 29.21                                                             
C 25.50  2.32 42.19                                                             
C 25.50  2.32 55.17                                                             
C 29.52  0.00  3.25                                                             
C 29.52  0.00 16.23                                                             
C 29.52  0.00 29.21                                                             
C 29.52  0.00 42.19                                                             
C 29.52  0.00 55.17                                                             
C  9.39 16.27  3.25                                                             
C  9.39 16.27 16.23                                                             
C  9.39 16.27 29.21                                                             
C  9.39 16.27 42.19                                                             
C  9.39 16.27 55.17                                                             
C 13.42 13.95  3.25                                                             
C 13.42 13.95 16.23                                                             
C 13.42 13.95 29.21                                                             
C 13.42 13.95 42.19                                                             
C 13.42 13.95 55.17                                                             
C 17.45 11.62  3.25                                                             
C 17.45 11.62 16.23                                                             
C 17.45 11.62 29.21                                                             
C 17.45 11.62 42.19                                                             
C 17.45 11.62 55.17                                                             
C 21.47  9.30  3.25                                                             
C 21.47  9.30 16.23                                                             
C 21.47  9.30 29.21                                                             
C 21.47  9.30 42.19                                                             
C 21.47  9.30 55.17                                                             
C 25.50  6.97  3.25                                                             
C 25.50  6.97 16.23                                                             
C 25.50  6.97 29.21                                                             
C 25.50  6.97 42.19                                                             
C 25.50  6.97 55.17                                                             
C 29.52  4.65  3.25                                                             
C 29.52  4.65 16.23                                                             
C 29.52  4.65 29.21                                                             
C 29.52  4.65 42.19                                                             
C 29.52  4.65 55.17                                                             
C 17.45 16.27  3.25                                                             
C 17.45 16.27 16.23                                                             
C 17.45 16.27 29.21                                                             
C 17.45 16.27 42.19                                                             
C 17.45 16.27 55.17                                                             
C 21.47 13.95  3.25                                                             
C 21.47 13.95 16.23                                                             
C 21.47 13.95 29.21                                                             
C 21.47 13.95 42.19                                                             
C 21.47 13.95 55.17                                                             
C 25.50 11.62  3.25                                                             
C 25.50 11.62 16.23                                                             
C 25.50 11.62 29.21                                                             
C 25.50 11.62 42.19                                                             
C 25.50 11.62 55.17                                                             
C 29.52  9.30  3.25                                                             
C 29.52  9.30 16.23                                                             
C 29.52  9.30 29.21                                                             
C 29.52  9.30 42.19                                                             
C 29.52  9.30 55.17                                                             
C 25.50 16.27  3.25                                                             
C 25.50 16.27 16.23                                                             
C 25.50 16.27 29.21                                                             
C 25.50 16.27 42.19                                                             
C 25.50 16.27 55.17                                                             
C 29.52 13.95  3.25                                                             
C 29.52 13.95 16.23                                                             
C 29.52 13.95 29.21                                                             
C 29.52 13.95 42.19                                                             
C 29.52 13.95 55.17                                                             
C  2.68  0.00  9.74                                                             
C  2.68  0.00 22.72                                                             
C  2.68  0.00 35.70                                                             
C  2.68  0.00 48.68                                                             
C  2.68  0.00 61.66                                                             
C  2.68  4.65  9.74                                                             
C  2.68  4.65 22.72                                                             
C  2.68  4.65 35.70                                                             
C  2.68  4.65 48.68                                                             
C  2.68  4.65 61.66                                                             
C  6.71  2.32  9.74                                                             
C  6.71  2.32 22.72                                                             
C  6.71  2.32 35.70                                                             
C  6.71  2.32 48.68                                                             
C  6.71  2.32 61.66                                                             
C 10.74  0.00  9.74                                                             
C 10.74  0.00 22.72                                                             
C 10.74  0.00 35.70                                                             
C 10.74  0.00 48.68                                                             
C 10.74  0.00 61.66                                                             
C  2.68  9.30  9.74                                                             
C  2.68  9.30 22.72                                                             
C  2.68  9.30 35.70                                                             
C  2.68  9.30 48.68                                                             
C  2.68  9.30 61.66                                                             
C  6.71  6.97  9.74                                                             
C  6.71  6.97 22.72                                                             
C  6.71  6.97 35.70                                                             
C  6.71  6.97 48.68                                                             
C  6.71  6.97 61.66                                                             
C 10.74  4.65  9.74                                                             
C 10.74  4.65 22.72                                                             
C 10.74  4.65 35.70                                                             
C 10.74  4.65 48.68                                                             
C 10.74  4.65 61.66                                                             
C 14.76  2.32  9.74                                                             
C 14.76  2.32 22.72                                                             
C 14.76  2.32 35.70                                                             
C 14.76  2.32 48.68                                                             
C 14.76  2.32 61.66                                                             
C 18.79  0.00  9.74                                                             
C 18.79  0.00 22.72                                                             
C 18.79  0.00 35.70                                                             
C 18.79  0.00 48.68                                                             
C 18.79  0.00 61.66                                                             
C  2.68 13.95  9.74                                                             
C  2.68 13.95 22.72                                                             
C  2.68 13.95 35.70                                                             
C  2.68 13.95 48.68                                                             
C  2.68 13.95 61.66                                                             
C  6.71 11.62  9.74                                                             
C  6.71 11.62 22.72                                                             
C  6.71 11.62 35.70                                                             
C  6.71 11.62 48.68                                                             
C  6.71 11.62 61.66                                                             
C 10.74  9.30  9.74                                                             
C 10.74  9.30 22.72                                                             
C 10.74  9.30 35.70                                                             
C 10.74  9.30 48.68                                                             
C 10.74  9.30 61.66                                                             
C 14.76  6.97  9.74                                                             
C 14.76  6.97 22.72                                                             
C 14.76  6.97 35.70                                                             
C 14.76  6.97 48.68                                                             
C 14.76  6.97 61.66                                                             
C 18.79  4.65  9.74                                                             
C 18.79  4.65 22.72                                                             
C 18.79  4.65 35.70                                                             
C 18.79  4.65 48.68                                                             
C 18.79  4.65 61.66                                                             
C 22.81  2.32  9.74                                                             
C 22.81  2.32 22.72                                                             
C 22.81  2.32 35.70                                                             
C 22.81  2.32 48.68                                                             
C 22.81  2.32 61.66                                                             
C 26.84  0.00  9.74                                                             
C 26.84  0.00 22.72                                                             
C 26.84  0.00 35.70                                                             
C 26.84  0.00 48.68                                                             
C 26.84  0.00 61.66                                                             
C  6.71 16.27  9.74                                                             
C  6.71 16.27 22.72                                                             
C  6.71 16.27 35.70                                                             
C  6.71 16.27 48.68                                                             
C  6.71 16.27 61.66                                                             
C 10.74 13.95  9.74                                                             
C 10.74 13.95 22.72                                                             
C 10.74 13.95 35.70                                                             
C 10.74 13.95 48.68                                                             
C 10.74 13.95 61.66                                                             
C 14.76 11.62  9.74                                                             
C 14.76 11.62 22.72                                                             
C 14.76 11.62 35.70                                                             
C 14.76 11.62 48.68                                                             
C 14.76 11.62 61.66                                                             
C 18.79  9.30  9.74                                                             
C 18.79  9.30 22.72                                                             
C 18.79  9.30 35.70                                                             
C 18.79  9.30 48.68                                                             
C 18.79  9.30 61.66                                                             
C 22.81  6.97  9.74                                                             
C 22.81  6.97 22.72                                                             
C 22.81  6.97 35.70                                                             
C 22.81  6.97 48.68                                                             
C 22.81  6.97 61.66                                                             
C 26.84  4.65  9.74                                                             
C 26.84  4.65 22.72                                                             
C 26.84  4.65 35.70                                                             
C 26.84  4.65 48.68                                                             
C 26.84  4.65 61.66                                                             
C 30.86  2.32  9.74                                                             
C 30.86  2.32 22.72                                                             
C 30.86  2.32 35.70                                                             
C 30.86  2.32 48.68                                                             
C 30.86  2.32 61.66                                                             
C 14.76 16.27  9.74                                                             
C 14.76 16.27 22.72                                                             
C 14.76 16.27 35.70                                                             
C 14.76 16.27 48.68                                                             
C 14.76 16.27 61.66                                                             
C 18.79 13.95  9.74                                                             
C 18.79 13.95 22.72                                                             
C 18.79 13.95 35.70                                                             
C 18.79 13.95 48.68                                                             
C 18.79 13.95 61.66                                                             
C 22.81 11.62  9.74                                                             
C 22.81 11.62 22.72                                                             
C 22.81 11.62 35.70                                                             
C 22.81 11.62 48.68                                                             
C 22.81 11.62 61.66                                                             
C 26.84  9.30  9.74                                                             
C 26.84  9.30 22.72                                                             
C 26.84  9.30 35.70                                                             
C 26.84  9.30 48.68                                                             
C 26.84  9.30 61.66                                                             
C 30.86  6.97  9.74                                                             
C 30.86  6.97 22.72                                                             
C 30.86  6.97 35.70                                                             
C 30.86  6.97 48.68                                                             
C 30.86  6.97 61.66                                                             
C 22.81 16.27  9.74                                                             
C 22.81 16.27 22.72                                                             
C 22.81 16.27 35.70                                                             
C 22.81 16.27 48.68                                                             
C 22.81 16.27 61.66                                                             
C 26.84 13.95  9.74                                                             
C 26.84 13.95 22.72                                                             
C 26.84 13.95 35.70                                                             
C 26.84 13.95 48.68                                                             
C 26.84 13.95 61.66                                                             
C 30.86 11.62  9.74                                                             
C 30.86 11.62 22.72                                                             
C 30.86 11.62 35.70                                                             
C 30.86 11.62 48.68                                                             
C 30.86 11.62 61.66                                                             
C 30.86 16.27  9.74                                                             
C 30.86 16.27 22.72                                                             
C 30.86 16.27 35.70                                                             
C 30.86 16.27 48.68                                                             
C 30.86 16.27 61.66                                                             
%ENDBLOCK POSITIONS_ABS                                                         

--------------------------------------------------------------------------------
-------------------------------- END INPUT FILE --------------------------------
--------------------------------------------------------------------------------


 
<<<<<<<<<<<<<<<<<<<<<<<<<<<<<<<<< Full system >>>>>>>>>>>>>>>>>>>>>>>>>>>>>>>>>>
<<<<<<<<<<<<<<<<<<<<<<<<<<< PAW Dataset information >>>>>>>>>>>>>>>>>>>>>>>>>>>
File: ~/pp/paw/c_pbe_abinit.paw; rc = 1.25 bohr; shape type =  3; rshape = 1.25 bohr;
  Atomic number:  6;  ionic charge:  4.000000
    Partial Wave 1: l = 0
    Partial Wave 2: l = 0
    Partial Wave 3: l = 1
    Partial Wave 4: l = 1
  Core charge supplied for Nonlinear Core Corrections
<<<<<<<<<<<<<<<<<<<<<<<<<<<<<<<<<<<<<<< >>>>>>>>>>>>>>>>>>>>>>>>>>>>>>>>>>>>>>>

-------------------------- Atom counting information ---------------------------
Symbol    Natoms    Nngwfs    Nprojs
  C        640      2560      5120
.......   ......    ......    ......
Totals:    640      2560      5120
--------------------------------------------------------------------------------

=============================== PSINC grid sizes ===============================
                      Simulation cell:   63 x  35 x 128
                              FFT-box:   63 x  35 x 117
                                  PPD:    7 x   5 x   1
Grid space d1=  0.511269841270a0 (KE cutoff=  29.06054Eh = 790.77748eV)
Grid space d2=  0.531142857143a0 (KE cutoff=  26.92659Eh = 732.70972eV)
Grid space d3=  0.507031250000a0 (KE cutoff=  29.54844Eh = 804.05395eV)
================================================================================
  
WARNING in cell_grid_distribute:
Average of less than one 23-slab per node, so workload cannot be
equally balanced between nodes.

********************* Fourier parallelisation information **********************
       Coarse grid (whole simulation cell) dimensions:     63    35   128
          Real-space ('12') slabs/node (min max mean):      3     4     3
         Recip-space ('23') slabs/node (min max mean):      0     1     0
********************************************************************************

********************* Fourier parallelisation information **********************
       Double grid (whole simulation cell) dimensions:    126    70   256
          Real-space ('12') slabs/node (min max mean):      6     7     6
         Recip-space ('23') slabs/node (min max mean):      1     2     1
********************************************************************************

Atom SCF Calculation for C  : Z (AE atom) =   6 : Z (PS atom) =   4
Config String: 2s2 2p2
Orbitals (num,occ):  2     2.00 2.00
Orbitals   (num,l):  2        0    1
Real-space Grid (nr,dr,rmax): 1293    0.0069659443    9.0000000000
Spherical Bessel Basis (nsws,lmax,cutoff):   37    2  161.4736382572
Confining potential (l,width,scale):  0    3.0000000000  100.0000000000
Confining potential (l,width,scale):  1    3.0000000000  100.0000000000
  1         -5.4283124456   -1.2935102156    4.5135257941   -1.5923561795
  2         -5.4241534249   -1.3636937911    4.4427183619   -1.5694122055
  3         -5.4326289545   -1.3865748334    4.4195613881   -1.5634604620
  4         -5.4368073263   -1.3933479911    4.4127833993   -1.5619680687
  5         -5.4388652800   -1.3969668505    4.4091714945   -1.5612108736
  6         -5.4399077146   -1.3988848872    4.4072644158   -1.5608235486
  7         -5.4404434041   -1.3998980658    4.4062615348   -1.5606243010
  8         -5.4407208401   -1.4004325328    4.4057350952   -1.5605214507
  9         -5.4408651553   -1.4007143559    4.4054589454   -1.5604682523
 10         -5.4409404127   -1.4008629743    4.4053141024   -1.5604407028
 11         -5.4409797152   -1.4009413770    4.4052381126   -1.5604264250
 12         -5.4410002582   -1.4009827603    4.4051982277   -1.5604190215
 13         -5.4410110012   -1.4010046176    4.4051772812   -1.5604151811
 14         -5.4410166211   -1.4010161701    4.4051662735   -1.5604131883
 15         -5.4410195614   -1.4010222805    4.4051604845   -1.5604121539
 16         -5.4410211001   -1.4010255150    4.4051574379   -1.5604116169
 17         -5.4410219052   -1.4010272285    4.4051558332   -1.5604113379
 18         -5.4410223266   -1.4010281369    4.4051549874   -1.5604111930
 19         -5.4410225472   -1.4010286190    4.4051545411   -1.5604111177
 20         -5.4410226626   -1.4010288749    4.4051543055   -1.5604110786
 21         -5.4410227231   -1.4010290110    4.4051541810   -1.5604110582
Atom SCF converged after  21 iterations to a total energy of     -5.44102272

Determining parallel strategy ...
... using space-filling curve
... NGWF load balancing: max     64;  min     64;  average     64
... Projector load balancing: max    128;  min    128;  average    128
... done
Calculating Ewald energy ...
              Ewald: real-space energy =    9492.616425
        Ewald: reciprocal-space energy =       0.112306
         Ewald: (sum_charge)**2 Energy =   11225.826865
         Ewald: (sum_charge**2) Energy =     887.479538
                          Ewald Energy =   -2620.577672
Basis initialisation ...... NGWF spheres initialised
... Projector spheres initialised
... NGWF tight boxes initialised
... Projector tight boxes initialised
... Tight-boxes gathered
... NGWF basis size (local,global):     693524  27899680
... PAW projector initialisation
... done

============================= Charge Augmentation ==============================
                           Aug box size:   11 x  11 x  11
================================================================================

========================== Sparse matrix information ===========================
                        Overlap matrix filling:  44.38%
                        Density kernel filling: 100.00%
              NGWF-Proj overlap matrix filling:  12.19%
                    Aug Overlap matrix filling:  47.03%
                    Hamiltonian matrix filling:  47.03%
                  NGWF diagonal matrix filling:   0.16%
                             KS matrix filling: 100.00% 
                           KSKS matrix filling: 100.00% 
================================================================================

Sparse matrix initialisation ... done
NGWF initialisation ...... done
============ Calculation of NGWF S^-1 using Hotelling algorithm ================ 
         Iteration  |  Frobenius norm and Maximum abs value    (of I-S*S_n^-1)   
               1       0.49091553E+02     0.97641811E+00
               2       0.47883529E+02     0.95465293E+00
               3       0.46062220E+02     0.91564477E+00
               4       0.43689246E+02     0.85111795E+00
               5       0.40843042E+02     0.75510800E+00
               6       0.37524246E+02     0.68085643E+00
               7       0.34046687E+02     0.63281769E+00
               8       0.30729610E+02     0.59281711E+00
               9       0.27214481E+02     0.54996831E+00
              10       0.22791416E+02     0.48327013E+00
              11       0.17013760E+02     0.37657322E+00
              12       0.10278217E+02     0.23363512E+00
              13       0.42796996E+01     0.95597698E-01
              14       0.88571868E+00     0.18263457E-01
              15       0.44965916E-01     0.81345265E-03
              16       0.14553963E-03     0.20478476E-05
              17       0.22772327E-08     0.19897195E-10
              18       0.77373337E-13     0.48849813E-14
================================================================================
Calculating core density ...
================================= Core Density =================================
               Core den box size:   21 x  21 x  21
================================================================================
 ... done
Up spin density kernel initialisation ...... done

Writing density kernel to file "3.4344936_GO_manual_4x64graphite.dkn" ... done

>>> Optimising kernel for current NGWFs:

--------------------------- Ensemble-DFT optimisation --------------------------
Running ScaLAPACK on   40 processor(s).

--------------------------------------------------------------------------------
  Iter                              Commutator    Free_energy(A=E-TS)     DeltaA
#    0                          0.000032145401   -3651.50521340567911  -3.65E+03

Step                       =       0.381966011250
Energy                     =   -3651.505179548026
Entropy (-TS)              =      -0.000033857870
Free energy (A=E-TS)       =   -3651.505213405679
Est. 0K Energy 0.5*(E+A)   =   -3651.505196476853
Residual Non-orthogonality =       0.000000000000
Residual N_electrons       =       0.000000000217

Spin          Integrated_Ne            Fermi_level     Delta_Fermi_level
   1      2559.999999998928         0.202344591108              2.02E-01

                           Spin 1          
     Orb      H-eigenvalues     Occupancies
       1 |    -0.5200298898    1.0000000000 | 
                          ------
    1276 |     0.1686223045    0.9999762679 | 
    1277 |     0.1692309209    0.9999712393 | 
    1278 |     0.1692457068    0.9999711047 | 
    1279 |     0.1696547295    0.9999671210 | 
    1280 |     0.1702736135    0.9999600249 | 
                 - Gap at zero temperature -
    1281 |     0.2370517928    0.0000173888 | 
    1282 |     0.2370637690    0.0000173231 | 
    1283 |     0.2371125552    0.0000170583 | 
    1284 |     0.2372763572    0.0000161984 | 
    1285 |     0.2372881948    0.0000161380 | 
                          ------
    2560 |     1.0348170184    0.0000000000 | 

                       |  Abs_value |  Threshold | Converged
     Delta_Free_energy |   3.65E+03 |   1.00E-06 |        No
     Delta_Energy      |   3.65E+03 |   1.00E-04 |        No
     Delta_Entropy     |   3.39E-05 |   1.00E-04 |       Yes
     Commutator        |   3.21E-05 |   1.00E-05 |        No
     Delta_Fermi_level |   2.02E-01 |   1.00E-03 |        No

  Line search of the free energy minimum:
  Step_type        Step             Free_energy   Predicted_free_energy
.   Initial    0.000000    -3651.50521340567911
.    Trial1    0.381966    -3651.50629458845106
.    Trial2    0.618034    -3651.50623382947106
. Quadratic    0.474244    -3651.50633694830003    -3651.50633713366551

--------------------------------------------------------------------------------
  Iter                              Commutator    Free_energy(A=E-TS)     DeltaA
#    1                          0.000017760672   -3651.50633694830003  -1.12E-03

Step                       =       0.474243600062
Energy                     =   -3651.506303453737
Entropy (-TS)              =      -0.000033494811
Free energy (A=E-TS)       =   -3651.506336948300
Est. 0K Energy 0.5*(E+A)   =   -3651.506320201019
Residual Non-orthogonality =       0.000000000000
Residual N_electrons       =       0.000000000247

Spin          Integrated_Ne            Fermi_level     Delta_Fermi_level
   1      2559.999999998781         0.202877490126              5.33E-04

                           Spin 1          
     Orb      H-eigenvalues     Occupancies
       1 |    -0.5204584140    1.0000000000 | 
                          ------
    1276 |     0.1691891577    0.9999760120 | 
    1277 |     0.1696681537    0.9999720951 | 
    1278 |     0.1696848126    0.9999719479 | 
    1279 |     0.1702276711    0.9999667026 | 
    1280 |     0.1707188778    0.9999611159 | 
                 - Gap at zero temperature -
    1281 |     0.2375878369    0.0000173715 | 
    1282 |     0.2376079150    0.0000172617 | 
    1283 |     0.2376591252    0.0000169848 | 
    1284 |     0.2378205943    0.0000161405 | 
    1285 |     0.2378400952    0.0000160415 | 
                          ------
    2560 |     1.0354577102    0.0000000000 | 

                       |  Abs_value |  Threshold | Converged
     Delta_Free_energy |   1.12E-03 |   1.00E-06 |        No
     Delta_Energy      |   1.12E-03 |   1.00E-04 |        No
     Delta_Entropy     |   3.63E-07 |   1.00E-04 |       Yes
     Commutator        |   1.78E-05 |   1.00E-05 |        No
     Delta_Fermi_level |   5.33E-04 |   1.00E-03 |       Yes

  Line search of the free energy minimum:
  Step_type        Step             Free_energy   Predicted_free_energy
.   Initial    0.000000    -3651.50633694830003
.    Trial1    0.474244    -3651.50647275921938
.    Trial2    0.675065    -3651.50603760022250
. Quadratic    0.276522    -3651.50661515599631    -3651.50661483072054

--------------------------------------------------------------------------------
  Iter                              Commutator    Free_energy(A=E-TS)     DeltaA
#    2                          0.000011034912   -3651.50661515599631  -2.78E-04

Step                       =       0.276522392548
Energy                     =   -3651.506581814808
Entropy (-TS)              =      -0.000033340909
Free energy (A=E-TS)       =   -3651.506615155996
Est. 0K Energy 0.5*(E+A)   =   -3651.506598485402
Residual Non-orthogonality =       0.000000000000
Residual N_electrons       =      -0.000000000279

Spin          Integrated_Ne            Fermi_level     Delta_Fermi_level
   1      2560.000000001376         0.203027486873              1.50E-04

                           Spin 1          
     Orb      H-eigenvalues     Occupancies
       1 |    -0.5205956955    1.0000000000 | 
                          ------
    1276 |     0.1693077562    0.9999762487 | 
    1277 |     0.1698127464    0.9999721427 | 
    1278 |     0.1698367439    0.9999719308 | 
    1279 |     0.1703399007    0.9999670973 | 
    1280 |     0.1708644020    0.9999611708 | 
                 - Gap at zero temperature -
    1281 |     0.2377602472    0.0000172490 | 
    1282 |     0.2377877815    0.0000170997 | 
    1283 |     0.2378324266    0.0000168603 | 
    1284 |     0.2380033027    0.0000159747 | 
    1285 |     0.2380216484    0.0000158824 | 
                          ------
    2560 |     1.0356436445    0.0000000000 | 

                       |  Abs_value |  Threshold | Converged
     Delta_Free_energy |   2.78E-04 |   1.00E-06 |        No
     Delta_Energy      |   2.78E-04 |   1.00E-04 |        No
     Delta_Entropy     |   1.54E-07 |   1.00E-04 |       Yes
     Commutator        |   1.10E-05 |   1.00E-05 |        No
     Delta_Fermi_level |   1.50E-04 |   1.00E-03 |       Yes

  Line search of the free energy minimum:
  Step_type        Step             Free_energy   Predicted_free_energy
.   Initial    0.000000    -3651.50661515599631
.    Trial1    0.276522    -3651.50672051376432
.    Trial2    0.552866    -3651.50667661587386
. Quadratic    0.333355    -3651.50672365648097    -3651.50672366773051

--------------------------------------------------------------------------------
  Iter                              Commutator    Free_energy(A=E-TS)     DeltaA
#    3                          0.000007769294   -3651.50672365648097  -1.09E-04

Step                       =       0.333354931576
Energy                     =   -3651.506690444908
Entropy (-TS)              =      -0.000033211151
Free energy (A=E-TS)       =   -3651.506723656481
Est. 0K Energy 0.5*(E+A)   =   -3651.506707050694
Residual Non-orthogonality =       0.000000000000
Residual N_electrons       =      -0.000000000422

Spin          Integrated_Ne            Fermi_level     Delta_Fermi_level
   1      2560.000000002078         0.203158417965              1.31E-04

                           Spin 1          
     Orb      H-eigenvalues     Occupancies
       1 |    -0.5207088539    1.0000000000 | 
                          ------
    1276 |     0.1694228376    0.9999763673 | 
    1277 |     0.1699305438    0.9999722579 | 
    1278 |     0.1699605020    0.9999719943 | 
    1279 |     0.1704509306    0.9999673034 | 
    1280 |     0.1709841111    0.9999613082 | 
                 - Gap at zero temperature -
    1281 |     0.2379044268    0.0000171770 | 
    1282 |     0.2379380117    0.0000169958 | 
    1283 |     0.2379781121    0.0000167819 | 
    1284 |     0.2381529102    0.0000158807 | 
    1285 |     0.2381703277    0.0000157936 | 
                          ------
    2560 |     1.0358197387    0.0000000000 | 

                       |  Abs_value |  Threshold | Converged
     Delta_Free_energy |   1.09E-04 |   1.00E-06 |        No
     Delta_Energy      |   1.09E-04 |   1.00E-04 |        No
     Delta_Entropy     |   1.30E-07 |   1.00E-04 |       Yes
     Commutator        |   7.77E-06 |   1.00E-05 |       Yes
     Delta_Fermi_level |   1.31E-04 |   1.00E-03 |       Yes

  Line search of the free energy minimum:
  Step_type        Step             Free_energy   Predicted_free_energy
.   Initial    0.000000    -3651.50672365648097
.    Trial1    0.333355    -3651.50677139851587
.    Trial2    0.587991    -3651.50670395294310
. Quadratic    0.269854    -3651.50677420404872    -3651.50677419712747

--------------------------------------------------------------------------------
  Iter                              Commutator    Free_energy(A=E-TS)     DeltaA
#    4                          0.000005299066   -3651.50677420404872  -5.05E-05

Step                       =       0.269854035959
Energy                     =   -3651.506741060300
Entropy (-TS)              =      -0.000033143404
Free energy (A=E-TS)       =   -3651.506774204049
[...]
 C   275 -- C   555       -0.10      5.37000
 C   274 -- C   554       -0.10      5.37000
 C   273 -- C   553       -0.10      5.37000
 C   272 -- C   552       -0.10      5.37000
 C   271 -- C   551       -0.10      5.37000
 C   270 -- C   550       -0.10      5.37000
 C   269 -- C   549       -0.10      5.37000
 C   268 -- C   548       -0.10      5.37000
 C   267 -- C   547       -0.10      5.37000
 C   266 -- C   546       -0.10      5.37000
 C   130 -- C   465       -0.10      5.37000
 C   129 -- C   464       -0.10      5.37000
 C   128 -- C   463       -0.10      5.37000
 C   127 -- C   462       -0.10      5.37000
 C   126 -- C   461       -0.10      5.37000
 C   240 -- C   525       -0.10      5.37000
 C   239 -- C   524       -0.10      5.37000
 C   238 -- C   523       -0.10      5.37000
 C   237 -- C   522       -0.10      5.37000
 C   236 -- C   521       -0.10      5.37000
 C    23 -- C   478       -0.09      5.37202
 C    49 -- C   469       -0.09      5.37202
 C    48 -- C   468       -0.09      5.37202
 C    47 -- C   467       -0.09      5.37202
 C    22 -- C   477       -0.09      5.37202
 C    46 -- C   466       -0.09      5.37202
 C    21 -- C   476       -0.09      5.37202
 C    25 -- C   480       -0.09      5.37202
 C    24 -- C   479       -0.09      5.37202
 C    50 -- C   470       -0.09      5.37202
 C    24 -- C   449       -0.09      5.37202
 C     6 -- C   416       -0.09      5.37202
 C    23 -- C   448       -0.09      5.37202
 C    22 -- C   447       -0.09      5.37202
 C    10 -- C   470       -0.09      5.37202
 C     5 -- C   450       -0.09      5.37202
 C    21 -- C   446       -0.09      5.37202
 C    10 -- C   420       -0.09      5.37202
 C     9 -- C   469       -0.09      5.37202
 C     9 -- C   419       -0.09      5.37202
 C     8 -- C   468       -0.09      5.37202
 C     4 -- C   449       -0.09      5.37202
 C     8 -- C   418       -0.09      5.37202
 C   285 -- C   580       -0.09      5.37202
 C   284 -- C   579       -0.09      5.37202
 C   283 -- C   578       -0.09      5.37202
 C   282 -- C   577       -0.09      5.37202
 C   281 -- C   576       -0.09      5.37202
 C     2 -- C   447       -0.09      5.37202
 C     7 -- C   467       -0.09      5.37202
 C   260 -- C   605       -0.09      5.37202
 C   259 -- C   604       -0.09      5.37202
 C   258 -- C   603       -0.09      5.37202
 C   257 -- C   602       -0.09      5.37202
 C   256 -- C   601       -0.09      5.37202
 C     7 -- C   417       -0.09      5.37202
 C     1 -- C   446       -0.09      5.37202
 C     6 -- C   466       -0.09      5.37202
 C    25 -- C   450       -0.09      5.37202
 C     3 -- C   448       -0.09      5.37202
 C   219 -- C   569       -0.09      5.37202
 C   218 -- C   568       -0.09      5.37202
 C   217 -- C   567       -0.09      5.37202
 C   216 -- C   566       -0.09      5.37202
 C   250 -- C   540       -0.09      5.37202
 C   249 -- C   539       -0.09      5.37202
 C   248 -- C   538       -0.09      5.37202
 C   247 -- C   537       -0.09      5.37202
 C   246 -- C   536       -0.09      5.37202
 C   220 -- C   570       -0.09      5.37202
 C   205 -- C   550       -0.09      5.37202
 C   204 -- C   549       -0.09      5.37202
 C   203 -- C   548       -0.09      5.37202
 C   202 -- C   547       -0.09      5.37202
 C   201 -- C   546       -0.09      5.37202
 C    95 -- C   365       -0.09      5.37202
 C    94 -- C   364       -0.09      5.37202
 C    93 -- C   363       -0.09      5.37202
 C    92 -- C   362       -0.09      5.37202
 C    91 -- C   361       -0.09      5.37202
 C    65 -- C   395       -0.09      5.37202
 C    64 -- C   394       -0.09      5.37202
 C    63 -- C   393       -0.09      5.37202
 C    30 -- C   355       -0.09      5.37202
 C    62 -- C   392       -0.09      5.37202
 C    61 -- C   391       -0.09      5.37202
 C    29 -- C   354       -0.09      5.37202
 C   260 -- C   550       -0.09      5.37202
 C   259 -- C   549       -0.09      5.37202
 C    28 -- C   353       -0.09      5.37202
 C   258 -- C   548       -0.09      5.37202
 C   257 -- C   547       -0.09      5.37202
 C   256 -- C   546       -0.09      5.37202
 C    27 -- C   352       -0.09      5.37202
 C    26 -- C   351       -0.09      5.37202
 C    55 -- C   335       -0.09      5.37202
 C    54 -- C   334       -0.09      5.37202
 C    53 -- C   333       -0.09      5.37202
 C   230 -- C   580       -0.09      5.37202
 C   230 -- C   525       -0.09      5.37202
 C   229 -- C   579       -0.09      5.37202
 C   229 -- C   524       -0.09      5.37202
 C   228 -- C   578       -0.09      5.37202
 C    52 -- C   332       -0.09      5.37202
 C   228 -- C   523       -0.09      5.37202
 C   227 -- C   577       -0.09      5.37202
 C   227 -- C   522       -0.09      5.37202
 C   226 -- C   576       -0.09      5.37202
 C   226 -- C   521       -0.09      5.37202
 C    51 -- C   331       -0.09      5.37202
 C   220 -- C   515       -0.09      5.37202
 C   219 -- C   514       -0.09      5.37202
 C   218 -- C   513       -0.09      5.37202
 C   217 -- C   512       -0.09      5.37202
 C   216 -- C   511       -0.09      5.37202
 C   195 -- C   540       -0.09      5.37202
 C   195 -- C   500       -0.09      5.37202
 C   194 -- C   539       -0.09      5.37202
 C   194 -- C   499       -0.09      5.37202
 C   193 -- C   538       -0.09      5.37202
 C   193 -- C   498       -0.09      5.37202
 C   192 -- C   537       -0.09      5.37202
 C   192 -- C   497       -0.09      5.37202
 C   191 -- C   536       -0.09      5.37202
 C   191 -- C   496       -0.09      5.37202
 C   180 -- C   515       -0.09      5.37202
 C   179 -- C   514       -0.09      5.37202
 C   178 -- C   513       -0.09      5.37202
 C   177 -- C   512       -0.09      5.37202
 C   176 -- C   511       -0.09      5.37202
 C   150 -- C   440       -0.09      5.37202
 C   149 -- C   439       -0.09      5.37202
 C   148 -- C   438       -0.09      5.37202
 C   147 -- C   437       -0.09      5.37202
 C   146 -- C   436       -0.09      5.37202
 C   135 -- C   460       -0.09      5.37202
 C   134 -- C   459       -0.09      5.37202
 C   133 -- C   458       -0.09      5.37202
 C   132 -- C   457       -0.09      5.37202
 C   131 -- C   456       -0.09      5.37202
 C    11 -- C   331       -0.09      5.37202
 C    95 -- C   425       -0.09      5.37202
 C    94 -- C   424       -0.09      5.37202
 C    93 -- C   423       -0.09      5.37202
 C    92 -- C   422       -0.09      5.37202
 C    91 -- C   421       -0.09      5.37202
 C    85 -- C   355       -0.09      5.37202
 C    40 -- C   365       -0.09      5.37202
 C    84 -- C   354       -0.09      5.37202
 C    83 -- C   353       -0.09      5.37202
 C    82 -- C   352       -0.09      5.37202
 C    39 -- C   364       -0.09      5.37202
 C    81 -- C   351       -0.09      5.37202
 C    38 -- C   363       -0.09      5.37202
 C    37 -- C   362       -0.09      5.37202
 C    36 -- C   361       -0.09      5.37202
 C    15 -- C   335       -0.09      5.37202
 C    65 -- C   345       -0.09      5.37202
 C    64 -- C   344       -0.09      5.37202
 C    63 -- C   343       -0.09      5.37202
 C    30 -- C   325       -0.09      5.37202
 C    62 -- C   342       -0.09      5.37202
 C    14 -- C   334       -0.09      5.37202
 C    61 -- C   341       -0.09      5.37202
 C    29 -- C   324       -0.09      5.37202
 C    28 -- C   323       -0.09      5.37202
 C    13 -- C   333       -0.09      5.37202
 C    27 -- C   322       -0.09      5.37202
 C   120 -- C   395       -0.09      5.37202
 C    55 -- C   385       -0.09      5.37202
 C   119 -- C   394       -0.09      5.37202
 C   118 -- C   393       -0.09      5.37202
 C   117 -- C   392       -0.09      5.37202
 C    54 -- C   384       -0.09      5.37202
 C    26 -- C   321       -0.09      5.37202
 C   116 -- C   391       -0.09      5.37202
 C    53 -- C   383       -0.09      5.37202
 C    12 -- C   332       -0.09      5.37202
 C    52 -- C   382       -0.09      5.37202
 C    51 -- C   381       -0.09      5.37202
 C   106 -- C   436       -0.09      5.37202
 C   106 -- C   376       -0.09      5.37202
 C    80 -- C   410       -0.09      5.37202
 C    79 -- C   409       -0.09      5.37202
 C    78 -- C   408       -0.09      5.37202
 C    77 -- C   407       -0.09      5.37202
 C    76 -- C   406       -0.09      5.37202
 C   135 -- C   410       -0.09      5.37202
 C   134 -- C   409       -0.09      5.37202
 C   133 -- C   408       -0.09      5.37202
 C   132 -- C   407       -0.09      5.37202
 C   131 -- C   406       -0.09      5.37202
 C   110 -- C   440       -0.09      5.37202
 C   110 -- C   380       -0.09      5.37202
 C   109 -- C   439       -0.09      5.37202
 C   109 -- C   379       -0.09      5.37202
 C   108 -- C   438       -0.09      5.37202
 C   108 -- C   378       -0.09      5.37202
 C   107 -- C   437       -0.09      5.37202
 C   107 -- C   377       -0.09      5.37202
 C   215 -- C   635       -0.10      5.38000
 C   214 -- C   634       -0.10      5.38000
 C   213 -- C   633       -0.10      5.38000
 C   212 -- C   632       -0.10      5.38000
 C   211 -- C   631       -0.10      5.38000
 C   190 -- C   620       -0.10      5.38000
 C   189 -- C   619       -0.10      5.38000
 C   188 -- C   618       -0.10      5.38000
 C   187 -- C   617       -0.10      5.38000
 C   186 -- C   616       -0.10      5.38000
 C   175 -- C   595       -0.10      5.38000
 C   174 -- C   594       -0.10      5.38000
 C   173 -- C   593       -0.10      5.38000
 C   172 -- C   592       -0.10      5.38000
 C   171 -- C   591       -0.10      5.38000
 C   245 -- C   640       -0.10      5.38000
 C   244 -- C   639       -0.10      5.38000
 C   243 -- C   638       -0.10      5.38000
 C   242 -- C   637       -0.10      5.38000
 C   241 -- C   636       -0.10      5.38000
==================================================


=================== Orbital energy and occupancy information ===================

      Total number of orbitals:    2560
        Occupancy sum (kernel):    1280.000000001
   Occupancy sum (eigenvalues):    1280.000000001
                 HOMO-LUMO gap:       0.000053443 Eh
                 Mid-gap level:       0.283127830 Eh

                        Orbital | Energy (Eh) | Occupancy
                            1    -0.471526253   1.0000000
                        .......   ...........   .........
                         1272     0.214141951   0.9999882
                         1273     0.214553543   0.9999866
                         1274     0.214613412   0.9999863
                         1275     0.218044263   0.9999595
                         1276     0.218045004   0.9999595
                         1277     0.218503539   0.9999532
                         1278     0.218504260   0.9999532
                         1279     0.219018122   0.9999450
                         1280     0.219467861   0.9999366
                         1281     0.283101108   0.0000296
                        ....... -- gap at 0K -- .........
                         1282     0.283154551   0.0000291
                         1283     0.283351090   0.0000273
                         1284     0.283404690   0.0000269
                         1285     0.283911259   0.0000229
                         1286     0.283913037   0.0000229
                         1287     0.284175862   0.0000211
                         1288     0.284177749   0.0000211
                         1289     0.284293009   0.0000203
                         1290     0.284357294   0.0000199
                         1291     0.284452256   0.0000193
                        .......   ...........   .........
                         2560     1.140253782   0.0000000

================================================================================

===================== Writing canonical molecular orbitals =====================
| Orbital  Energy (eV)  Norm     |
| HOMO      7.70357314  1.000000 | Writing "3.4344936_GO_manual_4x64graphite_HOMO.cube" ... done
Writing "3.4344936_GO_manual_4x64graphite_HOMO.dx" ... done
| LUMO      7.70502740  1.000000 | Writing "3.4344936_GO_manual_4x64graphite_LUMO.cube" ... done
Writing "3.4344936_GO_manual_4x64graphite_LUMO.dx" ... done
================================================================================
 
===================== Density of States (DOS) calculation ======================
Writing "3.4344936_GO_manual_4x64graphite_DOS.txt" ...  done
================================================================================
 
Writing bands to file "3.4344936_GO_manual_4x64graphite.val_bands" ... done
 
================ Projected Density of States (pDOS) calculation ================
 
Constructing AM resolved functions  ...... done
Writing NGWF plot files in formats: CUBE DX ...  done
 
Performing overlap integrals ...  done
 
Computing pDOS weights ...  done
 
All bands spilling parameter =   3.59 %
Occupancy-weighted spilling parameter =   0.88 %
 
 => Outputting data for OptaDOS <=
 
Writing pDOS weights to file "3.4344936_GO_manual_4x64graphite.val_pdos_bin" ... done
 
Writing band gradients to file "3.4344936_GO_manual_4x64graphite.val_dome_bin" ... done
 
Writing Castep output cell file to "3.4344936_GO_manual_4x64graphite-out.cell" ... done
 
 => Computing Gaussian smeared pDOS <= 
Writing "3.4344936_GO_manual_4x64graphite_PDOS.txt" ...  done
 
 => Computing Occupancy-weighted Gaussian smeared pDOS <= 
Writing "3.4344936_GO_manual_4x64graphite_occ_PDOS.txt" ...  done
  => Band centres: 
 S band centre of group 1:  -15.556076 eV
 P band centre of group 1:   -8.440829 eV
  Band centres done. <=
  => Integrated number of electrons in each AM band: 
 S num electrons of group 1:  574.193638
 P num electrons of group 1: 1963.392648
  Integrated number of electrons done. <=
================================================================================

------------------------------ TIMING INFORMATION ------------------------------
AVERAGE TIME:    3774.689s on     40 node(s)                                    
TOTAL TIME:      3774.690s on     40 node(s)                                    
================= AVERAGE TIMINGS FROM ALL NODES (CUMULATIVE) ==================
|| TAG                                    #calls    cpu time   %total  Gflops ||
|| work_imbalance                       :     1        0.00s   0.000%  ------ ||
|| paw_tcore_hartree_on_grid            :     1        0.01s   0.000%  ------ ||
|| paw_tcore_density                    :     1        0.01s   0.000%  ------ ||
|| paw_sphere_density_on_grid           :     1        0.01s   0.000%  ------ ||
|| sparse_set_to_garbage                :   159        0.03s   0.001%  ------ ||
|| paw_dij_hartree                      :   338        0.04s   0.001%  ------ ||
|| pseudo_make_structure_factor         :     1        0.05s   0.001%  ------ ||
|| basis_extract_function_from_box      :  1792        0.08s   0.002%  ------ ||
|| paw_species_calc_proj_prec_mat       :     1        0.12s   0.003%  ------ ||
|| density_init_guess_real              :     1        0.18s   0.005%  ------ ||
|| paw_dataset_init                     :     1        0.18s   0.005%  ------ ||
|| ngwfs_initialise_from_radial         :     2        0.66s   0.018%  ------ ||
|| restart_kernel_write                 :    15        0.84s   0.022%  ------ ||
|| sparse_init                          :     1        0.96s   0.025%  ------ ||
|| dense_normal_eigensolve              :     1        0.97s   0.026%  ------ ||
|| hartree_on_grid                      :   254        1.35s   0.036%  ------ ||
|| ewald_calculate_energy               :     1        2.67s   0.071%  ------ ||
|| projectors_init_fftbox_recip         :   141        2.70s   0.072%  ------ ||
|| fourier_apply_box_pair               :  2656        4.39s   0.116% 561.199 ||
|| basis_copy_function_to_box           : 24000        5.18s   0.137%  ------ ||
|| augmentation_screen_dij              :   259        5.64s   0.150%  ------ ||
|| sw_init                              :     1        6.73s   0.178%  ------ ||
|| sparse_embed_hotelling_invert_embed  :    27        7.54s   0.200%  ------ ||
|| ngwf_gradient_coeffs                 :    14        9.97s   0.264%  ------ ||
|| fourier_apply_cell_backward          :  7845       14.91s   0.395%  63.357 ||
|| fourier_apply_cell_forward           :  7338       16.48s   0.437%  53.622 ||
|| cell_grid_extract_box_real           : 10108       17.02s   0.451%  ------ ||
|| sparse_trace                         :  3066       17.62s   0.467%  ------ ||
|| paw_dij_xc                           :   338       24.30s   0.644%  ------ ||
|| cell_grid_deposit_box_real           : 32688       24.67s   0.653%  ------ ||
|| aug_nonlocal_mat                     :   324       34.70s   0.919%  ------ ||
|| augmentation_density_on_grid         :   254       43.61s   1.155%  ------ ||
|| hamiltonian_energy_components        :     3       50.31s   1.333%  ------ ||
|| density_fftbox_deposit_to_cell       : 16256       51.27s   1.358%  ------ ||
|| eigenstates_pdos                     :     1       53.59s   1.420%  ------ ||
|| function_ops_brappd_ketppd           :    56       57.79s   1.531%  ------ ||
|| eigenstates_calculate                :     1       57.80s   1.531%  ------ ||
|| projectors_func_ovlp_box             :    28       62.34s   1.651%  ------ ||
|| xc_energy_potential                  :   253       73.92s   1.958%  ------ ||
|| nlxc_vdw_energy                      :   506       74.01s   1.961%  ------ ||
|| integrals_kinetic                    :    27       93.72s   2.483%  ------ ||
|| properties_calculate                 :     1      104.65s   2.772%  ------ ||
|| dense_eigensolve                     :   223      110.23s   2.920%  ------ ||
|| sparse_product                       :  3085      120.48s   3.192%  ------ ||
|| potential_apply_to_ngwf_batch        :   316      127.65s   3.382%  ------ ||
|| restart_ngwfs_tightbox_output        :    13      146.59s   3.884%  ------ ||
|| basis_dot_function_with_box          : 7.844M     215.36s   5.705%  ------ ||
|| fourier_apply_box                    : 75552      234.45s   6.211% 980.271 ||
|| edft_diag_ngwf_ham                   :   222      247.17s   6.548%  ------ ||
|| projectors_gradient_batch            :    56      253.93s   6.727%  ------ ||
|| integrals_locpot_mat_els_batch       :   316      288.60s   7.646%  ------ ||
|| density_fftbox_interpolate_multiply  : 16256      314.56s   8.333%  ------ ||
|| projectors_grad_precond_batch        :    56      348.73s   9.239%  ------ ||
|| density_batch_interp_deposit         :  1016      409.98s  10.861%  ------ ||
|| integrals_locpot_dbl_grid            :    79      417.85s  11.070%  ------ ||
|| edft_apply_smearing_operator         :   222      481.69s  12.761%  ------ ||
|| basis_add_function_to_box            : 22.54M     595.06s  15.765%  ------ ||
|| ngwf_gradient_build_batch            :    56      645.24s  17.094%  ------ ||
|| density_batch_row_sums               :  1016      832.66s  22.059%  ------ ||
|| ngwf_gradient_batch                  :    56      868.52s  23.009%  ------ ||
|| ngwf_gradient_lnv                    :    14      896.36s  23.747%  ------ ||
|| density_on_dbl_grid                  :   254     1256.11s  33.277%  ------ ||
|| hamiltonian_lhxc_calculate           :   249     1356.49s  35.936%  ------ ||
|| edft_calculate                       :    14     2238.64s  59.307%  ------ ||
|| ngwf_cg_optimise                     :     1     3650.04s  96.698%  ------ ||
|| total_time                           :     1     3774.69s 100.000%  ------ ||
================================================================================
Overhead of generating timer report: 
- 0 ms averaging over threads,
- 5 ms ensuring consistency across MPI ranks,
- 0 ms printing in order.

Job completed: 21-02-2020 15:15 (-0000)

