 +---------------------------------------------------------------+
 |                                                               |
 |        ####### #     # ####### ####### ####### ######         |
 |        #     # ##    # #          #    #       #     #        |
 |        #     # # #   # #          #    #       #     #        |
 |        #     # #  #  # #####      #    #####   ######         |
 |        #     # #   # # #          #    #       #              |
 |        #     # #    ## #          #    #       #              |
 |        ####### #     # #######    #    ####### #              |
 |                                                               |
 |        Linear-Scaling Ab Initio Total Energy Program          |
 |                                                               |
 |          Release for academic collaborators of ODG            |
 |                                             Version 5.3.2.12  |
 |                                                               |
 +---------------------------------------------------------------+
 |                                                               |
 |  Authors:                                                     |
 |  Jacek Dziedzic, Peter D. Haynes, Nicholas D. M. Hine,        |
 |  Arash. A. Mostofi, Mike C. Payne and Chris-Kriton Skylaris   |
 |                                                               |
 |  Contributors:                                                |
 |  J. Aarons, L. Andrinopoulos, P. W. Avraam, R. A. Bell,       |
 |  A. Bhandari, G. A. Bramley, R. J. Charlton, S. J. Clark,     |
 |  R. J. Clements, G. C. Constantinescu, F. Corsetti,           |
 |  N. Corsini, O. Dieguez, S. M. M. Dubois, K. K. B. Duff,      |
 |  J. M. Escartin, A. Greco, H. Helal, Q. O. Hill, L. P. Lee,   |
 |  J.-H. Li, E. B. Linscott, G. Moynihan, D. D. O`Regan,        |
 |  O. K. Okan, M. J. S. Phipps, C. J. Pickard,                  |
 |  J. C. A. Prentice, M. I. J. Probert, L. E. Ratcliff,         |
 |  M. Robinson, A. Ruiz Serrano, J. S. Spencer, E. W. Tait,     |
 |  G. Teobaldi, D. Turban, V. Vitale, K. A. Wilkinson,          |
 |  C. Weber, J. C. Womack, N. Yeung and T. J. Zuehlsdorff       |
 |                                                               |
 |                                   Copyright (c) 2004-2020     |
 |                                                               |
 |  Please cite:                                                 |
 |  "Introducing ONETEP: Linear-scaling density functional       |
 |   simulations on parallel computers".                         |
 |   C.-K. Skylaris, P. D. Haynes, A. A. Mostofi, M. C. Payne.   |
 |   J. Chem. Phys. 122 084119 (2005).                           |
 |                                                               |
 |          in all publications arising from your use of ONETEP. |
 |                                                               |
 +---------------------------------------------------------------+
 |                                                               |
 |   ONETEP is based on developments described in the following  |
 |   publications:                                               |
 |                                                               |
 |  "Nonorthogonal generalized Wannier function pseudopotential  |
 |   plane-wave method".                                         |
 |   C.-K. Skylaris, A. A. Mostofi, P. D. Haynes, O. Dieguez,    |
 |   M. C. Payne.                                                |
 |   Phys. Rev. B 66 035119 (2002).                              |
 |                                                               |
 |  "Preconditioned iterative minimization for linear-scaling    |
 |   electronic structure calculations".                         |
 |   A. A. Mostofi, P. D. Haynes, C.-K. Skylaris, M. C. Payne.   |
 |   J. Chem. Phys. 119(17), pp.8842-8848 (2003).                |
 |                                                               |
 |  "Total-energy calculations on a real space grid with         |
 |   localized functions and a plane-wave basis".                |
 |   A. A. Mostofi, C.-K. Skylaris, P. D. Haynes, M. C. Payne.   |
 |   Comput. Phys. Commun. 147, pp.788-802 (2002).               |
 |                                                               |
 |  "Accurate kinetic energy evaluation in electronic structure  |
 |   calculations with localized functions on real space grids"  |
 |   C.-K. Skylaris, A. A. Mostofi, P. D. Haynes, C. J. Pickard, |
 |   M. C. Payne.                                                |
 |   Comput. Phys. Commun. 140, pp.315-322 (2001).               |
 |                                                               |
 |  "Accurate ionic forces and geometry optimization in linear-  |
 |   scaling density-functional theory with local orbitals"      |
 |   N. D. M. Hine, M. Robinson, P. D. Haynes, C.-K. Skylaris,   |
 |   M. C. Payne, and A. A. Mostofi.                             |
 |   Phys. Rev. B 83 195102 (2011).                              |
 |                                                               |
 +---------------------------------------------------------------+

Job started: 21-02-2020 14:24 (-0000)
 
Reading parameters from file "3.488156_GO_manual_4x64graphite.dat" ...

WARNING: "cutoff_energy" not specified, but "psinc_spacing" specified.
         Using the latter to set the KE cutoff energy to  732.32021eV,
         thus *overriding* the default.

... done

If your calculation crashes here, before "Checking processes and threads..."
is displayed, then your stack size is insufficient.
If so, use "ulimit -s unlimited" at runtime.
You can disable this check with "check_stack_size F".

Checking processes and threads...
   Determining the default number of threads...
      No default threads set at compilation time: defaulting to 1.
      OpenMP library call suggests 4 threads.
      Hybrid MPI-OpenMP compilation detected.
      Number of MPI processes > 1.
      OMP_NUM_THREADS environment variable present and
      its value matches the one obtained from the OpenMP library call.
      Using this value as default.
      Default threads: 4
      Default applies to threads_max and threads_num_fftboxes.
      Settings in the input file override this default.
   ... done

   Running with 40 MPI processes.
   There are 10 MPI processes running on the same node as the root process.
   Each MPI process is using: 
               1 threads for simulation cell FFTs.
               1 threads for parallel FFT box operations.
               4 threads for loops over batched FFT box operations.
               4 threads in other parallel regions.
... done

Basic input checks...
Resetting ngwf_cg_rotate to TRUE for EDFT calculations
... done

Reading geometry and species blocks from file "3.488156_GO_manual_4x64graphite.dat" ...
    
  PSINC grid spacing along a1 set to   0.511215680000a0 from input file.
  PSINC grid spacing along a2 set to   0.531284090000a0 from input file.
  PSINC grid spacing along a3 set to   0.507051770000a0 from input file.
  Number of PPD points along a3 set to 1.  This is 
  the default value, it may have been provided also in the input file.
... done
 Writing xyz coordinates to file "3.488156_GO_manual_4x64graphite.xyz" ... done


--------------------------------------------------------------------------------
---------------------------------- INPUT FILE ----------------------------------
--------------------------------------------------------------------------------

task : singlepoint                                                              
do_properties : true                                                            
dx_format T                                                                     
edft T                                                                          
output_detail VERBOSE                                                           
write_xyz T                                                                     
xc_functional VV10                                                              
PSINC_SPACING 0.51121568 0.53128409 0.50705177                                  
paw T                                                                           
pdos_max_l = 2                                                                  
dos_smear  0.1 eV                                                               
popn_calculate T                                                                
PDOS_PSEUDOATOMIC T                                                             
PDOS_REDUCE_SWS F                                                               
PDOS_CONSTRUCT_BASIS F                                                          
PDOS_LOWDIN T                                                                   
PDOS_ORTH_ATOM_BLOCKS F                                                         
PDOS_LCAO_OPTIMIZE F                                                            
pdos_optados_output T                                                           
homo_plot 0                                                                     
lumo_plot 0                                                                     
homo_dens_plot -1                                                               
lumo_dens_plot -1                                                               
%BLOCK SPECIES                                                                  
C C 6 4 9.0                                                                     
%ENDBLOCK SPECIES                                                               
%BLOCK SPECIES_POT                                                              
C "~/pp/paw/c_pbe_abinit.paw"                                                   
%ENDBLOCK SPECIES_POT                                                           
%BLOCK SPECIES_ATOMIC_SET                                                       
C "SOLVE conf=2s2 2p2"                                                          
%ENDBLOCK SPECIES_ATOMIC_SET                                                    
%BLOCK LATTICE_CART                                                             
32.21  0.00  0.00                                                               
0.00 18.59  0.00                                                                
0.00  0.00 65.92                                                                
%ENDBLOCK LATTICE_CART                                                          
%BLOCK POSITIONS_ABS                                                            
C  0.00  0.00  3.30                                                             
C  0.00  0.00 16.48                                                             
C  0.00  0.00 29.66                                                             
C  0.00  0.00 42.85                                                             
C  0.00  0.00 56.03                                                             
C  0.00  4.65  3.30                                                             
C  0.00  4.65 16.48                                                             
C  0.00  4.65 29.66                                                             
C  0.00  4.65 42.85                                                             
C  0.00  4.65 56.03                                                             
C  4.03  2.32  3.30                                                             
C  4.03  2.32 16.48                                                             
C  4.03  2.32 29.66                                                             
C  4.03  2.32 42.85                                                             
C  4.03  2.32 56.03                                                             
C  8.05  0.00  3.30                                                             
C  8.05  0.00 16.48                                                             
C  8.05  0.00 29.66                                                             
C  8.05  0.00 42.85                                                             
C  8.05  0.00 56.03                                                             
C  0.00  9.30  3.30                                                             
C  0.00  9.30 16.48                                                             
C  0.00  9.30 29.66                                                             
C  0.00  9.30 42.85                                                             
C  0.00  9.30 56.03                                                             
C  4.03  6.97  3.30                                                             
C  4.03  6.97 16.48                                                             
C  4.03  6.97 29.66                                                             
C  4.03  6.97 42.85                                                             
C  4.03  6.97 56.03                                                             
C  8.05  4.65  3.30                                                             
C  8.05  4.65 16.48                                                             
C  8.05  4.65 29.66                                                             
C  8.05  4.65 42.85                                                             
C  8.05  4.65 56.03                                                             
C 12.08  2.32  3.30                                                             
C 12.08  2.32 16.48                                                             
C 12.08  2.32 29.66                                                             
C 12.08  2.32 42.85                                                             
C 12.08  2.32 56.03                                                             
C 16.10  0.00  3.30                                                             
C 16.10  0.00 16.48                                                             
C 16.10  0.00 29.66                                                             
C 16.10  0.00 42.85                                                             
C 16.10  0.00 56.03                                                             
C  0.00 13.95  3.30                                                             
C  0.00 13.95 16.48                                                             
C  0.00 13.95 29.66                                                             
C  0.00 13.95 42.85                                                             
C  0.00 13.95 56.03                                                             
C  4.03 11.62  3.30                                                             
C  4.03 11.62 16.48                                                             
C  4.03 11.62 29.66                                                             
C  4.03 11.62 42.85                                                             
C  4.03 11.62 56.03                                                             
C  8.05  9.30  3.30                                                             
C  8.05  9.30 16.48                                                             
C  8.05  9.30 29.66                                                             
C  8.05  9.30 42.85                                                             
C  8.05  9.30 56.03                                                             
C 12.08  6.97  3.30                                                             
C 12.08  6.97 16.48                                                             
C 12.08  6.97 29.66                                                             
C 12.08  6.97 42.85                                                             
C 12.08  6.97 56.03                                                             
C 16.10  4.65  3.30                                                             
C 16.10  4.65 16.48                                                             
C 16.10  4.65 29.66                                                             
C 16.10  4.65 42.85                                                             
C 16.10  4.65 56.03                                                             
C 20.13  2.32  3.30                                                             
C 20.13  2.32 16.48                                                             
C 20.13  2.32 29.66                                                             
C 20.13  2.32 42.85                                                             
C 20.13  2.32 56.03                                                             
C 24.16  0.00  3.30                                                             
C 24.16  0.00 16.48                                                             
C 24.16  0.00 29.66                                                             
C 24.16  0.00 42.85                                                             
C 24.16  0.00 56.03                                                             
C  4.03 16.27  3.30                                                             
C  4.03 16.27 16.48                                                             
C  4.03 16.27 29.66                                                             
C  4.03 16.27 42.85                                                             
C  4.03 16.27 56.03                                                             
C  8.05 13.95  3.30                                                             
C  8.05 13.95 16.48                                                             
C  8.05 13.95 29.66                                                             
C  8.05 13.95 42.85                                                             
C  8.05 13.95 56.03                                                             
C 12.08 11.62  3.30                                                             
C 12.08 11.62 16.48                                                             
C 12.08 11.62 29.66                                                             
C 12.08 11.62 42.85                                                             
C 12.08 11.62 56.03                                                             
C 16.10  9.30  3.30                                                             
C 16.10  9.30 16.48                                                             
C 16.10  9.30 29.66                                                             
C 16.10  9.30 42.85                                                             
C 16.10  9.30 56.03                                                             
C 20.13  6.97  3.30                                                             
C 20.13  6.97 16.48                                                             
C 20.13  6.97 29.66                                                             
C 20.13  6.97 42.85                                                             
C 20.13  6.97 56.03                                                             
C 24.16  4.65  3.30                                                             
C 24.16  4.65 16.48                                                             
C 24.16  4.65 29.66                                                             
C 24.16  4.65 42.85                                                             
C 24.16  4.65 56.03                                                             
C 28.18  2.32  3.30                                                             
C 28.18  2.32 16.48                                                             
C 28.18  2.32 29.66                                                             
C 28.18  2.32 42.85                                                             
C 28.18  2.32 56.03                                                             
C 12.08 16.27  3.30                                                             
C 12.08 16.27 16.48                                                             
C 12.08 16.27 29.66                                                             
C 12.08 16.27 42.85                                                             
C 12.08 16.27 56.03                                                             
C 16.10 13.95  3.30                                                             
C 16.10 13.95 16.48                                                             
C 16.10 13.95 29.66                                                             
C 16.10 13.95 42.85                                                             
C 16.10 13.95 56.03                                                             
C 20.13 11.62  3.30                                                             
C 20.13 11.62 16.48                                                             
C 20.13 11.62 29.66                                                             
C 20.13 11.62 42.85                                                             
C 20.13 11.62 56.03                                                             
C 24.16  9.30  3.30                                                             
C 24.16  9.30 16.48                                                             
C 24.16  9.30 29.66                                                             
C 24.16  9.30 42.85                                                             
C 24.16  9.30 56.03                                                             
C 28.18  6.97  3.30                                                             
C 28.18  6.97 16.48                                                             
C 28.18  6.97 29.66                                                             
C 28.18  6.97 42.85                                                             
C 28.18  6.97 56.03                                                             
C 20.13 16.27  3.30                                                             
C 20.13 16.27 16.48                                                             
C 20.13 16.27 29.66                                                             
C 20.13 16.27 42.85                                                             
C 20.13 16.27 56.03                                                             
C 24.16 13.95  3.30                                                             
C 24.16 13.95 16.48                                                             
C 24.16 13.95 29.66                                                             
C 24.16 13.95 42.85                                                             
C 24.16 13.95 56.03                                                             
C 28.18 11.62  3.30                                                             
C 28.18 11.62 16.48                                                             
C 28.18 11.62 29.66                                                             
C 28.18 11.62 42.85                                                             
C 28.18 11.62 56.03                                                             
C 28.18 16.27  3.30                                                             
C 28.18 16.27 16.48                                                             
C 28.18 16.27 29.66                                                             
C 28.18 16.27 42.85                                                             
C 28.18 16.27 56.03                                                             
C  0.00  0.00  9.89                                                             
C  0.00  0.00 23.07                                                             
C  0.00  0.00 36.25                                                             
C  0.00  0.00 49.44                                                             
C  0.00  0.00 62.62                                                             
C  0.00  4.65  9.89                                                             
C  0.00  4.65 23.07                                                             
C  0.00  4.65 36.25                                                             
C  0.00  4.65 49.44                                                             
C  0.00  4.65 62.62                                                             
C  4.03  2.32  9.89                                                             
C  4.03  2.32 23.07                                                             
C  4.03  2.32 36.25                                                             
C  4.03  2.32 49.44                                                             
C  4.03  2.32 62.62                                                             
C  8.05  0.00  9.89                                                             
C  8.05  0.00 23.07                                                             
C  8.05  0.00 36.25                                                             
C  8.05  0.00 49.44                                                             
C  8.05  0.00 62.62                                                             
C  0.00  9.30  9.89                                                             
C  0.00  9.30 23.07                                                             
C  0.00  9.30 36.25                                                             
C  0.00  9.30 49.44                                                             
C  0.00  9.30 62.62                                                             
C  4.03  6.97  9.89                                                             
C  4.03  6.97 23.07                                                             
C  4.03  6.97 36.25                                                             
C  4.03  6.97 49.44                                                             
C  4.03  6.97 62.62                                                             
C  8.05  4.65  9.89                                                             
C  8.05  4.65 23.07                                                             
C  8.05  4.65 36.25                                                             
C  8.05  4.65 49.44                                                             
C  8.05  4.65 62.62                                                             
C 12.08  2.32  9.89                                                             
C 12.08  2.32 23.07                                                             
C 12.08  2.32 36.25                                                             
C 12.08  2.32 49.44                                                             
C 12.08  2.32 62.62                                                             
C 16.10  0.00  9.89                                                             
C 16.10  0.00 23.07                                                             
C 16.10  0.00 36.25                                                             
C 16.10  0.00 49.44                                                             
C 16.10  0.00 62.62                                                             
C  0.00 13.95  9.89                                                             
C  0.00 13.95 23.07                                                             
C  0.00 13.95 36.25                                                             
C  0.00 13.95 49.44                                                             
C  0.00 13.95 62.62                                                             
C  4.03 11.62  9.89                                                             
C  4.03 11.62 23.07                                                             
C  4.03 11.62 36.25                                                             
C  4.03 11.62 49.44                                                             
C  4.03 11.62 62.62                                                             
C  8.05  9.30  9.89                                                             
C  8.05  9.30 23.07                                                             
C  8.05  9.30 36.25                                                             
C  8.05  9.30 49.44                                                             
C  8.05  9.30 62.62                                                             
C 12.08  6.97  9.89                                                             
C 12.08  6.97 23.07                                                             
C 12.08  6.97 36.25                                                             
C 12.08  6.97 49.44                                                             
C 12.08  6.97 62.62                                                             
C 16.10  4.65  9.89                                                             
C 16.10  4.65 23.07                                                             
C 16.10  4.65 36.25                                                             
C 16.10  4.65 49.44                                                             
C 16.10  4.65 62.62                                                             
C 20.13  2.32  9.89                                                             
C 20.13  2.32 23.07                                                             
C 20.13  2.32 36.25                                                             
C 20.13  2.32 49.44                                                             
C 20.13  2.32 62.62                                                             
C 24.16  0.00  9.89                                                             
C 24.16  0.00 23.07                                                             
C 24.16  0.00 36.25                                                             
C 24.16  0.00 49.44                                                             
C 24.16  0.00 62.62                                                             
C  4.03 16.27  9.89                                                             
C  4.03 16.27 23.07                                                             
C  4.03 16.27 36.25                                                             
C  4.03 16.27 49.44                                                             
C  4.03 16.27 62.62                                                             
C  8.05 13.95  9.89                                                             
C  8.05 13.95 23.07                                                             
C  8.05 13.95 36.25                                                             
C  8.05 13.95 49.44                                                             
C  8.05 13.95 62.62                                                             
C 12.08 11.62  9.89                                                             
C 12.08 11.62 23.07                                                             
C 12.08 11.62 36.25                                                             
C 12.08 11.62 49.44                                                             
C 12.08 11.62 62.62                                                             
C 16.10  9.30  9.89                                                             
C 16.10  9.30 23.07                                                             
C 16.10  9.30 36.25                                                             
C 16.10  9.30 49.44                                                             
C 16.10  9.30 62.62                                                             
C 20.13  6.97  9.89                                                             
C 20.13  6.97 23.07                                                             
C 20.13  6.97 36.25                                                             
C 20.13  6.97 49.44                                                             
C 20.13  6.97 62.62                                                             
C 24.16  4.65  9.89                                                             
C 24.16  4.65 23.07                                                             
C 24.16  4.65 36.25                                                             
C 24.16  4.65 49.44                                                             
C 24.16  4.65 62.62                                                             
C 28.18  2.32  9.89                                                             
C 28.18  2.32 23.07                                                             
C 28.18  2.32 36.25                                                             
C 28.18  2.32 49.44                                                             
C 28.18  2.32 62.62                                                             
C 12.08 16.27  9.89                                                             
C 12.08 16.27 23.07                                                             
C 12.08 16.27 36.25                                                             
C 12.08 16.27 49.44                                                             
C 12.08 16.27 62.62                                                             
C 16.10 13.95  9.89                                                             
C 16.10 13.95 23.07                                                             
C 16.10 13.95 36.25                                                             
C 16.10 13.95 49.44                                                             
C 16.10 13.95 62.62                                                             
C 20.13 11.62  9.89                                                             
C 20.13 11.62 23.07                                                             
C 20.13 11.62 36.25                                                             
C 20.13 11.62 49.44                                                             
C 20.13 11.62 62.62                                                             
C 24.16  9.30  9.89                                                             
C 24.16  9.30 23.07                                                             
C 24.16  9.30 36.25                                                             
C 24.16  9.30 49.44                                                             
C 24.16  9.30 62.62                                                             
C 28.18  6.97  9.89                                                             
C 28.18  6.97 23.07                                                             
C 28.18  6.97 36.25                                                             
C 28.18  6.97 49.44                                                             
C 28.18  6.97 62.62                                                             
C 20.13 16.27  9.89                                                             
C 20.13 16.27 23.07                                                             
C 20.13 16.27 36.25                                                             
C 20.13 16.27 49.44                                                             
C 20.13 16.27 62.62                                                             
C 24.16 13.95  9.89                                                             
C 24.16 13.95 23.07                                                             
C 24.16 13.95 36.25                                                             
C 24.16 13.95 49.44                                                             
C 24.16 13.95 62.62                                                             
C 28.18 11.62  9.89                                                             
C 28.18 11.62 23.07                                                             
C 28.18 11.62 36.25                                                             
C 28.18 11.62 49.44                                                             
C 28.18 11.62 62.62                                                             
C 28.18 16.27  9.89                                                             
C 28.18 16.27 23.07                                                             
C 28.18 16.27 36.25                                                             
C 28.18 16.27 49.44                                                             
C 28.18 16.27 62.62                                                             
C  1.34  2.32  3.30                                                             
C  1.34  2.32 16.48                                                             
C  1.34  2.32 29.66                                                             
C  1.34  2.32 42.85                                                             
C  1.34  2.32 56.03                                                             
C  5.37  0.00  3.30                                                             
C  5.37  0.00 16.48                                                             
C  5.37  0.00 29.66                                                             
C  5.37  0.00 42.85                                                             
C  5.37  0.00 56.03                                                             
C  1.34  6.97  3.30                                                             
C  1.34  6.97 16.48                                                             
C  1.34  6.97 29.66                                                             
C  1.34  6.97 42.85                                                             
C  1.34  6.97 56.03                                                             
C  5.37  4.65  3.30                                                             
C  5.37  4.65 16.48                                                             
C  5.37  4.65 29.66                                                             
C  5.37  4.65 42.85                                                             
C  5.37  4.65 56.03                                                             
C  9.39  2.32  3.30                                                             
C  9.39  2.32 16.48                                                             
C  9.39  2.32 29.66                                                             
C  9.39  2.32 42.85                                                             
C  9.39  2.32 56.03                                                             
C 13.42  0.00  3.30                                                             
C 13.42  0.00 16.48                                                             
C 13.42  0.00 29.66                                                             
C 13.42  0.00 42.85                                                             
C 13.42  0.00 56.03                                                             
C  1.34 11.62  3.30                                                             
C  1.34 11.62 16.48                                                             
C  1.34 11.62 29.66                                                             
C  1.34 11.62 42.85                                                             
C  1.34 11.62 56.03                                                             
C  5.37  9.30  3.30                                                             
C  5.37  9.30 16.48                                                             
C  5.37  9.30 29.66                                                             
C  5.37  9.30 42.85                                                             
C  5.37  9.30 56.03                                                             
C  9.39  6.97  3.30                                                             
C  9.39  6.97 16.48                                                             
C  9.39  6.97 29.66                                                             
C  9.39  6.97 42.85                                                             
C  9.39  6.97 56.03                                                             
C 13.42  4.65  3.30                                                             
C 13.42  4.65 16.48                                                             
C 13.42  4.65 29.66                                                             
C 13.42  4.65 42.85                                                             
C 13.42  4.65 56.03                                                             
C 17.45  2.32  3.30                                                             
C 17.45  2.32 16.48                                                             
C 17.45  2.32 29.66                                                             
C 17.45  2.32 42.85                                                             
C 17.45  2.32 56.03                                                             
C 21.47  0.00  3.30                                                             
C 21.47  0.00 16.48                                                             
C 21.47  0.00 29.66                                                             
C 21.47  0.00 42.85                                                             
C 21.47  0.00 56.03                                                             
C  1.34 16.27  3.30                                                             
C  1.34 16.27 16.48                                                             
C  1.34 16.27 29.66                                                             
C  1.34 16.27 42.85                                                             
C  1.34 16.27 56.03                                                             
C  5.37 13.95  3.30                                                             
C  5.37 13.95 16.48                                                             
C  5.37 13.95 29.66                                                             
C  5.37 13.95 42.85                                                             
C  5.37 13.95 56.03                                                             
C  9.39 11.62  3.30                                                             
C  9.39 11.62 16.48                                                             
C  9.39 11.62 29.66                                                             
C  9.39 11.62 42.85                                                             
C  9.39 11.62 56.03                                                             
C 13.42  9.30  3.30                                                             
C 13.42  9.30 16.48                                                             
C 13.42  9.30 29.66                                                             
C 13.42  9.30 42.85                                                             
C 13.42  9.30 56.03                                                             
C 17.45  6.97  3.30                                                             
C 17.45  6.97 16.48                                                             
C 17.45  6.97 29.66                                                             
C 17.45  6.97 42.85                                                             
C 17.45  6.97 56.03                                                             
C 21.47  4.65  3.30                                                             
C 21.47  4.65 16.48                                                             
C 21.47  4.65 29.66                                                             
C 21.47  4.65 42.85                                                             
C 21.47  4.65 56.03                                                             
C 25.50  2.32  3.30                                                             
C 25.50  2.32 16.48                                                             
C 25.50  2.32 29.66                                                             
C 25.50  2.32 42.85                                                             
C 25.50  2.32 56.03                                                             
C 29.52  0.00  3.30                                                             
C 29.52  0.00 16.48                                                             
C 29.52  0.00 29.66                                                             
C 29.52  0.00 42.85                                                             
C 29.52  0.00 56.03                                                             
C  9.39 16.27  3.30                                                             
C  9.39 16.27 16.48                                                             
C  9.39 16.27 29.66                                                             
C  9.39 16.27 42.85                                                             
C  9.39 16.27 56.03                                                             
C 13.42 13.95  3.30                                                             
C 13.42 13.95 16.48                                                             
C 13.42 13.95 29.66                                                             
C 13.42 13.95 42.85                                                             
C 13.42 13.95 56.03                                                             
C 17.45 11.62  3.30                                                             
C 17.45 11.62 16.48                                                             
C 17.45 11.62 29.66                                                             
C 17.45 11.62 42.85                                                             
C 17.45 11.62 56.03                                                             
C 21.47  9.30  3.30                                                             
C 21.47  9.30 16.48                                                             
C 21.47  9.30 29.66                                                             
C 21.47  9.30 42.85                                                             
C 21.47  9.30 56.03                                                             
C 25.50  6.97  3.30                                                             
C 25.50  6.97 16.48                                                             
C 25.50  6.97 29.66                                                             
C 25.50  6.97 42.85                                                             
C 25.50  6.97 56.03                                                             
C 29.52  4.65  3.30                                                             
C 29.52  4.65 16.48                                                             
C 29.52  4.65 29.66                                                             
C 29.52  4.65 42.85                                                             
C 29.52  4.65 56.03                                                             
C 17.45 16.27  3.30                                                             
C 17.45 16.27 16.48                                                             
C 17.45 16.27 29.66                                                             
C 17.45 16.27 42.85                                                             
C 17.45 16.27 56.03                                                             
C 21.47 13.95  3.30                                                             
C 21.47 13.95 16.48                                                             
C 21.47 13.95 29.66                                                             
C 21.47 13.95 42.85                                                             
C 21.47 13.95 56.03                                                             
C 25.50 11.62  3.30                                                             
C 25.50 11.62 16.48                                                             
C 25.50 11.62 29.66                                                             
C 25.50 11.62 42.85                                                             
C 25.50 11.62 56.03                                                             
C 29.52  9.30  3.30                                                             
C 29.52  9.30 16.48                                                             
C 29.52  9.30 29.66                                                             
C 29.52  9.30 42.85                                                             
C 29.52  9.30 56.03                                                             
C 25.50 16.27  3.30                                                             
C 25.50 16.27 16.48                                                             
C 25.50 16.27 29.66                                                             
C 25.50 16.27 42.85                                                             
C 25.50 16.27 56.03                                                             
C 29.52 13.95  3.30                                                             
C 29.52 13.95 16.48                                                             
C 29.52 13.95 29.66                                                             
C 29.52 13.95 42.85                                                             
C 29.52 13.95 56.03                                                             
C  2.68  0.00  9.89                                                             
C  2.68  0.00 23.07                                                             
C  2.68  0.00 36.25                                                             
C  2.68  0.00 49.44                                                             
C  2.68  0.00 62.62                                                             
C  2.68  4.65  9.89                                                             
C  2.68  4.65 23.07                                                             
C  2.68  4.65 36.25                                                             
C  2.68  4.65 49.44                                                             
C  2.68  4.65 62.62                                                             
C  6.71  2.32  9.89                                                             
C  6.71  2.32 23.07                                                             
C  6.71  2.32 36.25                                                             
C  6.71  2.32 49.44                                                             
C  6.71  2.32 62.62                                                             
C 10.74  0.00  9.89                                                             
C 10.74  0.00 23.07                                                             
C 10.74  0.00 36.25                                                             
C 10.74  0.00 49.44                                                             
C 10.74  0.00 62.62                                                             
C  2.68  9.30  9.89                                                             
C  2.68  9.30 23.07                                                             
C  2.68  9.30 36.25                                                             
C  2.68  9.30 49.44                                                             
C  2.68  9.30 62.62                                                             
C  6.71  6.97  9.89                                                             
C  6.71  6.97 23.07                                                             
C  6.71  6.97 36.25                                                             
C  6.71  6.97 49.44                                                             
C  6.71  6.97 62.62                                                             
C 10.74  4.65  9.89                                                             
C 10.74  4.65 23.07                                                             
C 10.74  4.65 36.25                                                             
C 10.74  4.65 49.44                                                             
C 10.74  4.65 62.62                                                             
C 14.76  2.32  9.89                                                             
C 14.76  2.32 23.07                                                             
C 14.76  2.32 36.25                                                             
C 14.76  2.32 49.44                                                             
C 14.76  2.32 62.62                                                             
C 18.79  0.00  9.89                                                             
C 18.79  0.00 23.07                                                             
C 18.79  0.00 36.25                                                             
C 18.79  0.00 49.44                                                             
C 18.79  0.00 62.62                                                             
C  2.68 13.95  9.89                                                             
C  2.68 13.95 23.07                                                             
C  2.68 13.95 36.25                                                             
C  2.68 13.95 49.44                                                             
C  2.68 13.95 62.62                                                             
C  6.71 11.62  9.89                                                             
C  6.71 11.62 23.07                                                             
C  6.71 11.62 36.25                                                             
C  6.71 11.62 49.44                                                             
C  6.71 11.62 62.62                                                             
C 10.74  9.30  9.89                                                             
C 10.74  9.30 23.07                                                             
C 10.74  9.30 36.25                                                             
C 10.74  9.30 49.44                                                             
C 10.74  9.30 62.62                                                             
C 14.76  6.97  9.89                                                             
C 14.76  6.97 23.07                                                             
C 14.76  6.97 36.25                                                             
C 14.76  6.97 49.44                                                             
C 14.76  6.97 62.62                                                             
C 18.79  4.65  9.89                                                             
C 18.79  4.65 23.07                                                             
C 18.79  4.65 36.25                                                             
C 18.79  4.65 49.44                                                             
C 18.79  4.65 62.62                                                             
C 22.81  2.32  9.89                                                             
C 22.81  2.32 23.07                                                             
C 22.81  2.32 36.25                                                             
C 22.81  2.32 49.44                                                             
C 22.81  2.32 62.62                                                             
C 26.84  0.00  9.89                                                             
C 26.84  0.00 23.07                                                             
C 26.84  0.00 36.25                                                             
C 26.84  0.00 49.44                                                             
C 26.84  0.00 62.62                                                             
C  6.71 16.27  9.89                                                             
C  6.71 16.27 23.07                                                             
C  6.71 16.27 36.25                                                             
C  6.71 16.27 49.44                                                             
C  6.71 16.27 62.62                                                             
C 10.74 13.95  9.89                                                             
C 10.74 13.95 23.07                                                             
C 10.74 13.95 36.25                                                             
C 10.74 13.95 49.44                                                             
C 10.74 13.95 62.62                                                             
C 14.76 11.62  9.89                                                             
C 14.76 11.62 23.07                                                             
C 14.76 11.62 36.25                                                             
C 14.76 11.62 49.44                                                             
C 14.76 11.62 62.62                                                             
C 18.79  9.30  9.89                                                             
C 18.79  9.30 23.07                                                             
C 18.79  9.30 36.25                                                             
C 18.79  9.30 49.44                                                             
C 18.79  9.30 62.62                                                             
C 22.81  6.97  9.89                                                             
C 22.81  6.97 23.07                                                             
C 22.81  6.97 36.25                                                             
C 22.81  6.97 49.44                                                             
C 22.81  6.97 62.62                                                             
C 26.84  4.65  9.89                                                             
C 26.84  4.65 23.07                                                             
C 26.84  4.65 36.25                                                             
C 26.84  4.65 49.44                                                             
C 26.84  4.65 62.62                                                             
C 30.86  2.32  9.89                                                             
C 30.86  2.32 23.07                                                             
C 30.86  2.32 36.25                                                             
C 30.86  2.32 49.44                                                             
C 30.86  2.32 62.62                                                             
C 14.76 16.27  9.89                                                             
C 14.76 16.27 23.07                                                             
C 14.76 16.27 36.25                                                             
C 14.76 16.27 49.44                                                             
C 14.76 16.27 62.62                                                             
C 18.79 13.95  9.89                                                             
C 18.79 13.95 23.07                                                             
C 18.79 13.95 36.25                                                             
C 18.79 13.95 49.44                                                             
C 18.79 13.95 62.62                                                             
C 22.81 11.62  9.89                                                             
C 22.81 11.62 23.07                                                             
C 22.81 11.62 36.25                                                             
C 22.81 11.62 49.44                                                             
C 22.81 11.62 62.62                                                             
C 26.84  9.30  9.89                                                             
C 26.84  9.30 23.07                                                             
C 26.84  9.30 36.25                                                             
C 26.84  9.30 49.44                                                             
C 26.84  9.30 62.62                                                             
C 30.86  6.97  9.89                                                             
C 30.86  6.97 23.07                                                             
C 30.86  6.97 36.25                                                             
C 30.86  6.97 49.44                                                             
C 30.86  6.97 62.62                                                             
C 22.81 16.27  9.89                                                             
C 22.81 16.27 23.07                                                             
C 22.81 16.27 36.25                                                             
C 22.81 16.27 49.44                                                             
C 22.81 16.27 62.62                                                             
C 26.84 13.95  9.89                                                             
C 26.84 13.95 23.07                                                             
C 26.84 13.95 36.25                                                             
C 26.84 13.95 49.44                                                             
C 26.84 13.95 62.62                                                             
C 30.86 11.62  9.89                                                             
C 30.86 11.62 23.07                                                             
C 30.86 11.62 36.25                                                             
C 30.86 11.62 49.44                                                             
C 30.86 11.62 62.62                                                             
C 30.86 16.27  9.89                                                             
C 30.86 16.27 23.07                                                             
C 30.86 16.27 36.25                                                             
C 30.86 16.27 49.44                                                             
C 30.86 16.27 62.62                                                             
%ENDBLOCK POSITIONS_ABS                                                         

--------------------------------------------------------------------------------
-------------------------------- END INPUT FILE --------------------------------
--------------------------------------------------------------------------------


 
<<<<<<<<<<<<<<<<<<<<<<<<<<<<<<<<< Full system >>>>>>>>>>>>>>>>>>>>>>>>>>>>>>>>>>
<<<<<<<<<<<<<<<<<<<<<<<<<<< PAW Dataset information >>>>>>>>>>>>>>>>>>>>>>>>>>>
File: ~/pp/paw/c_pbe_abinit.paw; rc = 1.25 bohr; shape type =  3; rshape = 1.25 bohr;
  Atomic number:  6;  ionic charge:  4.000000
    Partial Wave 1: l = 0
    Partial Wave 2: l = 0
    Partial Wave 3: l = 1
    Partial Wave 4: l = 1
  Core charge supplied for Nonlinear Core Corrections
<<<<<<<<<<<<<<<<<<<<<<<<<<<<<<<<<<<<<<< >>>>>>>>>>>>>>>>>>>>>>>>>>>>>>>>>>>>>>>

-------------------------- Atom counting information ---------------------------
Symbol    Natoms    Nngwfs    Nprojs
  C        640      2560      5120
.......   ......    ......    ......
Totals:    640      2560      5120
--------------------------------------------------------------------------------

=============================== PSINC grid sizes ===============================
                      Simulation cell:   63 x  35 x 130
                              FFT-box:   63 x  35 x 117
                                  PPD:    7 x   5 x   1
Grid space d1=  0.511269841270a0 (KE cutoff=  29.06054Eh = 790.77748eV)
Grid space d2=  0.531142857143a0 (KE cutoff=  26.92659Eh = 732.70972eV)
Grid space d3=  0.507076923077a0 (KE cutoff=  29.54312Eh = 803.90911eV)
================================================================================
  
WARNING in cell_grid_distribute:
Average of less than one 23-slab per node, so workload cannot be
equally balanced between nodes.

********************* Fourier parallelisation information **********************
       Coarse grid (whole simulation cell) dimensions:     63    35   130
          Real-space ('12') slabs/node (min max mean):      3     4     3
         Recip-space ('23') slabs/node (min max mean):      0     1     0
********************************************************************************

********************* Fourier parallelisation information **********************
       Double grid (whole simulation cell) dimensions:    126    70   260
          Real-space ('12') slabs/node (min max mean):      6     7     6
         Recip-space ('23') slabs/node (min max mean):      1     2     1
********************************************************************************

Atom SCF Calculation for C  : Z (AE atom) =   6 : Z (PS atom) =   4
Config String: 2s2 2p2
Orbitals (num,occ):  2     2.00 2.00
Orbitals   (num,l):  2        0    1
Real-space Grid (nr,dr,rmax): 1293    0.0069659443    9.0000000000
Spherical Bessel Basis (nsws,lmax,cutoff):   37    2  161.4736382572
Confining potential (l,width,scale):  0    3.0000000000  100.0000000000
Confining potential (l,width,scale):  1    3.0000000000  100.0000000000
  1         -5.4283124456   -1.2935102156    4.5135257941   -1.5923561795
  2         -5.4241534249   -1.3636937911    4.4427183619   -1.5694122055
  3         -5.4326289545   -1.3865748334    4.4195613881   -1.5634604620
  4         -5.4368073263   -1.3933479911    4.4127833993   -1.5619680687
  5         -5.4388652800   -1.3969668505    4.4091714945   -1.5612108736
  6         -5.4399077146   -1.3988848872    4.4072644158   -1.5608235486
  7         -5.4404434041   -1.3998980658    4.4062615348   -1.5606243010
  8         -5.4407208401   -1.4004325328    4.4057350952   -1.5605214507
  9         -5.4408651553   -1.4007143559    4.4054589454   -1.5604682523
 10         -5.4409404127   -1.4008629743    4.4053141024   -1.5604407028
 11         -5.4409797152   -1.4009413770    4.4052381126   -1.5604264250
 12         -5.4410002582   -1.4009827603    4.4051982277   -1.5604190215
 13         -5.4410110012   -1.4010046176    4.4051772812   -1.5604151811
 14         -5.4410166211   -1.4010161701    4.4051662735   -1.5604131883
 15         -5.4410195614   -1.4010222805    4.4051604845   -1.5604121539
 16         -5.4410211001   -1.4010255150    4.4051574379   -1.5604116169
 17         -5.4410219052   -1.4010272285    4.4051558332   -1.5604113379
 18         -5.4410223266   -1.4010281369    4.4051549874   -1.5604111930
 19         -5.4410225472   -1.4010286190    4.4051545411   -1.5604111177
 20         -5.4410226626   -1.4010288749    4.4051543055   -1.5604110786
 21         -5.4410227231   -1.4010290110    4.4051541810   -1.5604110582
Atom SCF converged after  21 iterations to a total energy of     -5.44102272

Determining parallel strategy ...
... using space-filling curve
... NGWF load balancing: max     64;  min     64;  average     64
... Projector load balancing: max    128;  min    128;  average    128
... done
Calculating Ewald energy ...
              Ewald: real-space energy =    9488.262882
        Ewald: reciprocal-space energy =       0.145035
         Ewald: (sum_charge)**2 Energy =   11167.625436
         Ewald: (sum_charge**2) Energy =     882.878311
                          Ewald Energy =   -2562.095829
Basis initialisation ...... NGWF spheres initialised
... Projector spheres initialised
... NGWF tight boxes initialised
... Projector tight boxes initialised
... Tight-boxes gathered
... NGWF basis size (local,global):     693268  27922112
... PAW projector initialisation
... done

============================= Charge Augmentation ==============================
                           Aug box size:   11 x  11 x  11
================================================================================

========================== Sparse matrix information ===========================
                        Overlap matrix filling:  42.19%
                        Density kernel filling: 100.00%
              NGWF-Proj overlap matrix filling:  12.19%
                    Aug Overlap matrix filling:  47.03%
                    Hamiltonian matrix filling:  47.03%
                  NGWF diagonal matrix filling:   0.16%
                             KS matrix filling: 100.00% 
                           KSKS matrix filling: 100.00% 
================================================================================

Sparse matrix initialisation ... done
NGWF initialisation ...... done
============ Calculation of NGWF S^-1 using Hotelling algorithm ================ 
         Iteration  |  Frobenius norm and Maximum abs value    (of I-S*S_n^-1)   
               1       0.49064472E+02     0.97607673E+00
               2       0.47838266E+02     0.95397331E+00
               3       0.45995583E+02     0.91431499E+00
               4       0.43603353E+02     0.84865426E+00
               5       0.40740184E+02     0.75110799E+00
               6       0.37412016E+02     0.67918550E+00
               7       0.33940965E+02     0.63150598E+00
               8       0.30630406E+02     0.59171525E+00
               9       0.27100216E+02     0.54849231E+00
              10       0.22642022E+02     0.48078225E+00
              11       0.16824329E+02     0.37279972E+00
              12       0.10080924E+02     0.22920694E+00
              13       0.41368388E+01     0.92257193E-01
              14       0.83193965E+00     0.17095843E-01
              15       0.39868054E-01     0.71739540E-03
              16       0.11543847E-03     0.16056223E-05
              17       0.14505059E-08     0.12457591E-10
              18       0.76394695E-13     0.39968029E-14
================================================================================
Calculating core density ...
================================= Core Density =================================
               Core den box size:   21 x  21 x  21
================================================================================
 ... done
Up spin density kernel initialisation ...... done

Writing density kernel to file "3.488156_GO_manual_4x64graphite.dkn" ... done

>>> Optimising kernel for current NGWFs:

--------------------------- Ensemble-DFT optimisation --------------------------
Running ScaLAPACK on   40 processor(s).

--------------------------------------------------------------------------------
  Iter                              Commutator    Free_energy(A=E-TS)     DeltaA
#    0                          0.000030967925   -3651.19592014934506  -3.65E+03

Step                       =       0.381966011250
Energy                     =   -3651.195887607704
Entropy (-TS)              =      -0.000032541874
Free energy (A=E-TS)       =   -3651.195920149345
Est. 0K Energy 0.5*(E+A)   =   -3651.195903878524
Residual Non-orthogonality =       0.000000000000
Residual N_electrons       =       0.000000000235

Spin          Integrated_Ne            Fermi_level     Delta_Fermi_level
   1      2559.999999998796         0.194817530889              1.95E-01

                           Spin 1          
     Orb      H-eigenvalues     Occupancies
       1 |    -0.5274327997    1.0000000000 | 
                          ------
    1276 |     0.1608785629    0.9999778373 | 
    1277 |     0.1614921305    0.9999730993 | 
    1278 |     0.1615031388    0.9999730056 | 
    1279 |     0.1618773022    0.9999696202 | 
    1280 |     0.1624985933    0.9999630354 | 
                 - Gap at zero temperature -
    1281 |     0.2297853287    0.0000160152 | 
    1282 |     0.2297930606    0.0000159761 | 
    1283 |     0.2298383405    0.0000157493 | 
    1284 |     0.2300089418    0.0000149233 | 
    1285 |     0.2300155629    0.0000148922 | 
                          ------
    2560 |     1.0273002789    0.0000000000 | 

                       |  Abs_value |  Threshold | Converged
     Delta_Free_energy |   3.65E+03 |   1.00E-06 |        No
     Delta_Energy      |   3.65E+03 |   1.00E-04 |        No
     Delta_Entropy     |   3.25E-05 |   1.00E-04 |       Yes
     Commutator        |   3.10E-05 |   1.00E-05 |        No
     Delta_Fermi_level |   1.95E-01 |   1.00E-03 |        No

  Line search of the free energy minimum:
  Step_type        Step             Free_energy   Predicted_free_energy
.   Initial    0.000000    -3651.19592014934506
.    Trial1    0.381966    -3651.19693742620893
.    Trial2    0.618034    -3651.19692344524901
. Quadratic    0.493278    -3651.19699184929868    -3651.19699200647574

--------------------------------------------------------------------------------
  Iter                              Commutator    Free_energy(A=E-TS)     DeltaA
#    1                          0.000017601823   -3651.19699184929868  -1.07E-03

Step                       =       0.493277728794
Energy                     =   -3651.196959572967
Entropy (-TS)              =      -0.000032276295
Free energy (A=E-TS)       =   -3651.196991849299
Est. 0K Energy 0.5*(E+A)   =   -3651.196975711133
Residual Non-orthogonality =       0.000000000000
Residual N_electrons       =      -0.000000000037

Spin          Integrated_Ne            Fermi_level     Delta_Fermi_level
   1      2560.000000000190         0.195013600960              1.96E-04

                           Spin 1          
     Orb      H-eigenvalues     Occupancies
       1 |    -0.5282920488    1.0000000000 | 
                          ------
    1276 |     0.1611172377    0.9999775372 | 
    1277 |     0.1615978665    0.9999738557 | 
    1278 |     0.1616098219    0.9999737569 | 
    1279 |     0.1621195439    0.9999691740 | 
    1280 |     0.1626088425    0.9999640237 | 
                 - Gap at zero temperature -
    1281 |     0.2299620771    0.0000161132 | 
    1282 |     0.2299918089    0.0000159626 | 
    1283 |     0.2300311306    0.0000157656 | 
    1284 |     0.2301856024    0.0000150151 | 
    1285 |     0.2301945368    0.0000149728 | 
                          ------
    2560 |     1.0273413118    0.0000000000 | 

                       |  Abs_value |  Threshold | Converged
     Delta_Free_energy |   1.07E-03 |   1.00E-06 |        No
     Delta_Energy      |   1.07E-03 |   1.00E-04 |        No
     Delta_Entropy     |   2.66E-07 |   1.00E-04 |       Yes
     Commutator        |   1.76E-05 |   1.00E-05 |        No
     Delta_Fermi_level |   1.96E-04 |   1.00E-03 |       Yes

  Line search of the free energy minimum:
  Step_type        Step             Free_energy   Predicted_free_energy
.   Initial    0.000000    -3651.19699184929868
.    Trial1    0.493278    -3651.19707748966539
.    Trial2    0.686828    -3651.19660710461812
. Quadratic    0.269536    -3651.19726760198910    -3651.19726727901343

--------------------------------------------------------------------------------
  Iter                              Commutator    Free_energy(A=E-TS)     DeltaA
#    2                          0.000010614659   -3651.19726760198910  -2.76E-04

Step                       =       0.269535912618
Energy                     =   -3651.197235430906
Entropy (-TS)              =      -0.000032170924
Free energy (A=E-TS)       =   -3651.197267601989
Est. 0K Energy 0.5*(E+A)   =   -3651.197251516448
Residual Non-orthogonality =       0.000000000000
Residual N_electrons       =      -0.000000000159

Spin          Integrated_Ne            Fermi_level     Delta_Fermi_level
   1      2560.000000000816         0.195058968413              4.54E-05

                           Spin 1          
     Orb      H-eigenvalues     Occupancies
       1 |    -0.5285354750    1.0000000000 | 
                          ------
    1276 |     0.1611308933    0.9999777610 | 
    1277 |     0.1616459131    0.9999738336 | 
    1278 |     0.1616595722    0.9999737205 | 
    1279 |     0.1621297760    0.9999695141 | 
    1280 |     0.1626551504    0.9999640130 | 
                 - Gap at zero temperature -
    1281 |     0.2300300181    0.0000159987 | 
    1282 |     0.2300613094    0.0000158414 | 
    1283 |     0.2300980591    0.0000156587 | 
    1284 |     0.2302593577    0.0000148811 | 
    1285 |     0.2302686595    0.0000148374 | 
                          ------
    2560 |     1.0273394693    0.0000000000 | 

                       |  Abs_value |  Threshold | Converged
     Delta_Free_energy |   2.76E-04 |   1.00E-06 |        No
     Delta_Energy      |   2.76E-04 |   1.00E-04 |        No
     Delta_Entropy     |   1.05E-07 |   1.00E-04 |       Yes
     Commutator        |   1.06E-05 |   1.00E-05 |        No
     Delta_Fermi_level |   4.54E-05 |   1.00E-03 |       Yes

  Line search of the free energy minimum:
  Step_type        Step             Free_energy   Predicted_free_energy
.   Initial    0.000000    -3651.19726760198910
.    Trial1    0.269536    -3651.19736586205363
.    Trial2    0.548548    -3651.19733868391222
. Quadratic    0.351209    -3651.19737146864600    -3651.19737147964315

--------------------------------------------------------------------------------
  Iter                              Commutator    Free_energy(A=E-TS)     DeltaA
#    3                          0.000007467535   -3651.19737146864600  -1.04E-04

Step                       =       0.351209146178
Energy                     =   -3651.197339395716
Entropy (-TS)              =      -0.000032073129
Free energy (A=E-TS)       =   -3651.197371468646
Est. 0K Energy 0.5*(E+A)   =   -3651.197355432181
Residual Non-orthogonality =       0.000000000000
Residual N_electrons       =       0.000000000199

Spin          Integrated_Ne            Fermi_level     Delta_Fermi_level
   1      2559.999999998982         0.195101870900              4.29E-05

                           Spin 1          
     Orb      H-eigenvalues     Occupancies
       1 |    -0.5287600066    1.0000000000 | 
                          ------
    1276 |     0.1611566202    0.9999778813 | 
    1277 |     0.1616815137    0.9999738939 | 
    1278 |     0.1616961980    0.9999737725 | 
    1279 |     0.1621536631    0.9999696966 | 
    1280 |     0.1626899425    0.9999641050 | 
                 - Gap at zero temperature -
    1281 |     0.2300869318    0.0000159281 | 
    1282 |     0.2301190991    0.0000157671 | 
    1283 |     0.2301546688    0.0000155910 | 
    1284 |     0.2303183791    0.0000148055 | 
    1285 |     0.2303279147    0.0000147610 | 
                          ------
    2560 |     1.0273523770    0.0000000000 | 

                       |  Abs_value |  Threshold | Converged
     Delta_Free_energy |   1.04E-04 |   1.00E-06 |        No
     Delta_Energy      |   1.04E-04 |   1.00E-04 |        No
     Delta_Entropy     |   9.78E-08 |   1.00E-04 |       Yes
     Commutator        |   7.47E-06 |   1.00E-05 |       Yes
     Delta_Fermi_level |   4.29E-05 |   1.00E-03 |       Yes

  Line search of the free energy minimum:
  Step_type        Step             Free_energy   Predicted_free_energy
.   Initial    0.000000    -3651.19737146864600
.    Trial1    0.351209    -3651.19741405063360
.    Trial2    0.599025    -3651.19734442726576
. Quadratic    0.265895    -3651.19741894503886    -3651.19741893748778

--------------------------------------------------------------------------------
  Iter                              Commutator    Free_energy(A=E-TS)     DeltaA
#    4                          0.000004985989   -3651.19741894503886  -4.75E-05

Step                       =       0.265895076380
Energy                     =   -3651.197386918616
Entropy (-TS)              =      -0.000032026808
Free energy (A=E-TS)       =   -3651.197418945039
[...]
 C   275 -- C   555       -0.10      5.37000
 C   274 -- C   554       -0.10      5.37000
 C   273 -- C   553       -0.10      5.37000
 C   272 -- C   552       -0.10      5.37000
 C   271 -- C   551       -0.10      5.37000
 C   270 -- C   550       -0.10      5.37000
 C   269 -- C   549       -0.10      5.37000
 C   268 -- C   548       -0.10      5.37000
 C   267 -- C   547       -0.10      5.37000
 C   266 -- C   546       -0.10      5.37000
 C   130 -- C   465       -0.10      5.37000
 C   129 -- C   464       -0.10      5.37000
 C   128 -- C   463       -0.10      5.37000
 C   127 -- C   462       -0.10      5.37000
 C   126 -- C   461       -0.10      5.37000
 C   240 -- C   525       -0.10      5.37000
 C   239 -- C   524       -0.10      5.37000
 C   238 -- C   523       -0.10      5.37000
 C   237 -- C   522       -0.10      5.37000
 C   236 -- C   521       -0.10      5.37000
 C    23 -- C   478       -0.09      5.37202
 C    49 -- C   469       -0.09      5.37202
 C    48 -- C   468       -0.09      5.37202
 C    47 -- C   467       -0.09      5.37202
 C    22 -- C   477       -0.09      5.37202
 C    46 -- C   466       -0.09      5.37202
 C    21 -- C   476       -0.09      5.37202
 C    25 -- C   480       -0.09      5.37202
 C    24 -- C   479       -0.09      5.37202
 C    50 -- C   470       -0.09      5.37202
 C    24 -- C   449       -0.09      5.37202
 C     6 -- C   416       -0.09      5.37202
 C    23 -- C   448       -0.09      5.37202
 C    22 -- C   447       -0.09      5.37202
 C    10 -- C   470       -0.09      5.37202
 C     5 -- C   450       -0.09      5.37202
 C    21 -- C   446       -0.09      5.37202
 C    10 -- C   420       -0.09      5.37202
 C     9 -- C   469       -0.09      5.37202
 C     9 -- C   419       -0.09      5.37202
 C     8 -- C   468       -0.09      5.37202
 C     4 -- C   449       -0.09      5.37202
 C     8 -- C   418       -0.09      5.37202
 C   285 -- C   580       -0.09      5.37202
 C   284 -- C   579       -0.09      5.37202
 C   283 -- C   578       -0.09      5.37202
 C   282 -- C   577       -0.09      5.37202
 C   281 -- C   576       -0.09      5.37202
 C     2 -- C   447       -0.09      5.37202
 C     7 -- C   467       -0.09      5.37202
 C   260 -- C   605       -0.09      5.37202
 C   259 -- C   604       -0.09      5.37202
 C   258 -- C   603       -0.09      5.37202
 C   257 -- C   602       -0.09      5.37202
 C   256 -- C   601       -0.09      5.37202
 C     7 -- C   417       -0.09      5.37202
 C     1 -- C   446       -0.09      5.37202
 C     6 -- C   466       -0.09      5.37202
 C    25 -- C   450       -0.09      5.37202
 C     3 -- C   448       -0.09      5.37202
 C   219 -- C   569       -0.09      5.37202
 C   218 -- C   568       -0.09      5.37202
 C   217 -- C   567       -0.09      5.37202
 C   216 -- C   566       -0.09      5.37202
 C   250 -- C   540       -0.09      5.37202
 C   249 -- C   539       -0.09      5.37202
 C   248 -- C   538       -0.09      5.37202
 C   247 -- C   537       -0.09      5.37202
 C   246 -- C   536       -0.09      5.37202
 C   220 -- C   570       -0.09      5.37202
 C   205 -- C   550       -0.09      5.37202
 C   204 -- C   549       -0.09      5.37202
 C   203 -- C   548       -0.09      5.37202
 C   202 -- C   547       -0.09      5.37202
 C   201 -- C   546       -0.09      5.37202
 C    95 -- C   365       -0.09      5.37202
 C    94 -- C   364       -0.09      5.37202
 C    93 -- C   363       -0.09      5.37202
 C    92 -- C   362       -0.09      5.37202
 C    91 -- C   361       -0.09      5.37202
 C    65 -- C   395       -0.09      5.37202
 C    64 -- C   394       -0.09      5.37202
 C    63 -- C   393       -0.09      5.37202
 C    30 -- C   355       -0.10      5.37202
 C    62 -- C   392       -0.09      5.37202
 C    61 -- C   391       -0.09      5.37202
 C    29 -- C   354       -0.10      5.37202
 C   260 -- C   550       -0.09      5.37202
 C   259 -- C   549       -0.09      5.37202
 C    28 -- C   353       -0.10      5.37202
 C   258 -- C   548       -0.09      5.37202
 C   257 -- C   547       -0.09      5.37202
 C   256 -- C   546       -0.09      5.37202
 C    27 -- C   352       -0.10      5.37202
 C    26 -- C   351       -0.10      5.37202
 C    55 -- C   335       -0.09      5.37202
 C    54 -- C   334       -0.09      5.37202
 C    53 -- C   333       -0.09      5.37202
 C   230 -- C   580       -0.09      5.37202
 C   230 -- C   525       -0.09      5.37202
 C   229 -- C   579       -0.09      5.37202
 C   229 -- C   524       -0.09      5.37202
 C   228 -- C   578       -0.09      5.37202
 C    52 -- C   332       -0.09      5.37202
 C   228 -- C   523       -0.09      5.37202
 C   227 -- C   577       -0.09      5.37202
 C   227 -- C   522       -0.09      5.37202
 C   226 -- C   576       -0.09      5.37202
 C   226 -- C   521       -0.09      5.37202
 C    51 -- C   331       -0.09      5.37202
 C   220 -- C   515       -0.09      5.37202
 C   219 -- C   514       -0.09      5.37202
 C   218 -- C   513       -0.09      5.37202
 C   217 -- C   512       -0.09      5.37202
 C   216 -- C   511       -0.09      5.37202
 C   195 -- C   540       -0.09      5.37202
 C   195 -- C   500       -0.09      5.37202
 C   194 -- C   539       -0.09      5.37202
 C   194 -- C   499       -0.09      5.37202
 C   193 -- C   538       -0.09      5.37202
 C   193 -- C   498       -0.09      5.37202
 C   192 -- C   537       -0.09      5.37202
 C   192 -- C   497       -0.09      5.37202
 C   191 -- C   536       -0.09      5.37202
 C   191 -- C   496       -0.09      5.37202
 C   180 -- C   515       -0.09      5.37202
 C   179 -- C   514       -0.09      5.37202
 C   178 -- C   513       -0.09      5.37202
 C   177 -- C   512       -0.09      5.37202
 C   176 -- C   511       -0.09      5.37202
 C   150 -- C   440       -0.09      5.37202
 C   149 -- C   439       -0.09      5.37202
 C   148 -- C   438       -0.09      5.37202
 C   147 -- C   437       -0.09      5.37202
 C   146 -- C   436       -0.09      5.37202
 C   135 -- C   460       -0.09      5.37202
 C   134 -- C   459       -0.09      5.37202
 C   133 -- C   458       -0.09      5.37202
 C   132 -- C   457       -0.09      5.37202
 C   131 -- C   456       -0.09      5.37202
 C    11 -- C   331       -0.09      5.37202
 C    95 -- C   425       -0.09      5.37202
 C    94 -- C   424       -0.09      5.37202
 C    93 -- C   423       -0.09      5.37202
 C    92 -- C   422       -0.09      5.37202
 C    91 -- C   421       -0.09      5.37202
 C    85 -- C   355       -0.09      5.37202
 C    40 -- C   365       -0.09      5.37202
 C    84 -- C   354       -0.09      5.37202
 C    83 -- C   353       -0.09      5.37202
 C    82 -- C   352       -0.09      5.37202
 C    39 -- C   364       -0.09      5.37202
 C    81 -- C   351       -0.09      5.37202
 C    38 -- C   363       -0.09      5.37202
 C    37 -- C   362       -0.09      5.37202
 C    36 -- C   361       -0.09      5.37202
 C    15 -- C   335       -0.09      5.37202
 C    65 -- C   345       -0.09      5.37202
 C    64 -- C   344       -0.09      5.37202
 C    63 -- C   343       -0.09      5.37202
 C    30 -- C   325       -0.09      5.37202
 C    62 -- C   342       -0.09      5.37202
 C    14 -- C   334       -0.09      5.37202
 C    61 -- C   341       -0.09      5.37202
 C    29 -- C   324       -0.09      5.37202
 C    28 -- C   323       -0.09      5.37202
 C    13 -- C   333       -0.09      5.37202
 C    27 -- C   322       -0.09      5.37202
 C   120 -- C   395       -0.09      5.37202
 C    55 -- C   385       -0.09      5.37202
 C   119 -- C   394       -0.09      5.37202
 C   118 -- C   393       -0.09      5.37202
 C   117 -- C   392       -0.09      5.37202
 C    54 -- C   384       -0.09      5.37202
 C    26 -- C   321       -0.09      5.37202
 C   116 -- C   391       -0.09      5.37202
 C    53 -- C   383       -0.09      5.37202
 C    12 -- C   332       -0.09      5.37202
 C    52 -- C   382       -0.09      5.37202
 C    51 -- C   381       -0.09      5.37202
 C   106 -- C   436       -0.09      5.37202
 C   106 -- C   376       -0.09      5.37202
 C    80 -- C   410       -0.09      5.37202
 C    79 -- C   409       -0.09      5.37202
 C    78 -- C   408       -0.09      5.37202
 C    77 -- C   407       -0.09      5.37202
 C    76 -- C   406       -0.09      5.37202
 C   135 -- C   410       -0.09      5.37202
 C   134 -- C   409       -0.09      5.37202
 C   133 -- C   408       -0.09      5.37202
 C   132 -- C   407       -0.09      5.37202
 C   131 -- C   406       -0.09      5.37202
 C   110 -- C   440       -0.09      5.37202
 C   110 -- C   380       -0.09      5.37202
 C   109 -- C   439       -0.09      5.37202
 C   109 -- C   379       -0.09      5.37202
 C   108 -- C   438       -0.09      5.37202
 C   108 -- C   378       -0.09      5.37202
 C   107 -- C   437       -0.09      5.37202
 C   107 -- C   377       -0.09      5.37202
 C   215 -- C   635       -0.10      5.38000
 C   214 -- C   634       -0.10      5.38000
 C   213 -- C   633       -0.10      5.38000
 C   212 -- C   632       -0.10      5.38000
 C   211 -- C   631       -0.10      5.38000
 C   190 -- C   620       -0.10      5.38000
 C   189 -- C   619       -0.10      5.38000
 C   188 -- C   618       -0.10      5.38000
 C   187 -- C   617       -0.10      5.38000
 C   186 -- C   616       -0.10      5.38000
 C   175 -- C   595       -0.10      5.38000
 C   174 -- C   594       -0.10      5.38000
 C   173 -- C   593       -0.10      5.38000
 C   172 -- C   592       -0.10      5.38000
 C   171 -- C   591       -0.10      5.38000
 C   245 -- C   640       -0.10      5.38000
 C   244 -- C   639       -0.10      5.38000
 C   243 -- C   638       -0.10      5.38000
 C   242 -- C   637       -0.10      5.38000
 C   241 -- C   636       -0.10      5.38000
==================================================


=================== Orbital energy and occupancy information ===================

      Total number of orbitals:    2560
        Occupancy sum (kernel):    1280.000000000
   Occupancy sum (eigenvalues):    1280.000000000
                 HOMO-LUMO gap:       0.000005791 Eh
                 Mid-gap level:       0.276936405 Eh

                        Orbital | Energy (Eh) | Occupancy
                            1    -0.477325909   1.0000000
                        .......   ...........   .........
                         1272     0.207618956   0.9999884
                         1273     0.208081983   0.9999866
                         1274     0.208090405   0.9999865
                         1275     0.211377717   0.9999619
                         1276     0.211381070   0.9999619
                         1277     0.211839660   0.9999560
                         1278     0.211842943   0.9999559
                         1279     0.212384060   0.9999477
                         1280     0.212838132   0.9999396
                         1281     0.276933510   0.0000268
                        ....... -- gap at 0K -- .........
                         1282     0.276939301   0.0000268
                         1283     0.277183406   0.0000248
                         1284     0.277189295   0.0000248
                         1285     0.277634606   0.0000215
                         1286     0.277646637   0.0000214
                         1287     0.277898043   0.0000198
                         1288     0.277909922   0.0000197
                         1289     0.277986774   0.0000192
                         1290     0.277992476   0.0000192
                         1291     0.278128140   0.0000184
                        .......   ...........   .........
                         2560     1.134116050   0.0000000

================================================================================

===================== Writing canonical molecular orbitals =====================
| Orbital  Energy (eV)  Norm     |
| HOMO      7.53574425  1.000000 | Writing "3.488156_GO_manual_4x64graphite_HOMO.cube" ... done
Writing "3.488156_GO_manual_4x64graphite_HOMO.dx" ... done
| LUMO      7.53590183  1.000000 | Writing "3.488156_GO_manual_4x64graphite_LUMO.cube" ... done
Writing "3.488156_GO_manual_4x64graphite_LUMO.dx" ... done
================================================================================
 
===================== Density of States (DOS) calculation ======================
Writing "3.488156_GO_manual_4x64graphite_DOS.txt" ...  done
================================================================================
 
Writing bands to file "3.488156_GO_manual_4x64graphite.val_bands" ... done
 
================ Projected Density of States (pDOS) calculation ================
 
Constructing AM resolved functions  ...... done
Writing NGWF plot files in formats: CUBE DX ...  done
 
Performing overlap integrals ...  done
 
Computing pDOS weights ...  done
 
All bands spilling parameter =   3.50 %
Occupancy-weighted spilling parameter =   0.89 %
 
 => Outputting data for OptaDOS <=
 
Writing pDOS weights to file "3.488156_GO_manual_4x64graphite.val_pdos_bin" ... done
 
Writing band gradients to file "3.488156_GO_manual_4x64graphite.val_dome_bin" ... done
 
Writing Castep output cell file to "3.488156_GO_manual_4x64graphite-out.cell" ... done
 
 => Computing Gaussian smeared pDOS <= 
Writing "3.488156_GO_manual_4x64graphite_PDOS.txt" ...  done
 
 => Computing Occupancy-weighted Gaussian smeared pDOS <= 
Writing "3.488156_GO_manual_4x64graphite_occ_PDOS.txt" ...  done
  => Band centres: 
 S band centre of group 1:  -15.562282 eV
 P band centre of group 1:   -8.445452 eV
  Band centres done. <=
  => Integrated number of electrons in each AM band: 
 S num electrons of group 1:  574.155683
 P num electrons of group 1: 1963.186556
  Integrated number of electrons done. <=
================================================================================

------------------------------ TIMING INFORMATION ------------------------------
AVERAGE TIME:    3621.938s on     40 node(s)                                    
TOTAL TIME:      3621.938s on     40 node(s)                                    
================= AVERAGE TIMINGS FROM ALL NODES (CUMULATIVE) ==================
|| TAG                                    #calls    cpu time   %total  Gflops ||
|| work_imbalance                       :     1        0.00s   0.000%  ------ ||
|| paw_tcore_hartree_on_grid            :     1        0.00s   0.000%  ------ ||
|| paw_tcore_density                    :     1        0.01s   0.000%  ------ ||
|| paw_sphere_density_on_grid           :     1        0.01s   0.000%  ------ ||
|| sparse_set_to_garbage                :   159        0.02s   0.001%  ------ ||
|| paw_dij_hartree                      :   338        0.04s   0.001%  ------ ||
|| pseudo_make_structure_factor         :     1        0.06s   0.002%  ------ ||
|| basis_extract_function_from_box      :  1792        0.08s   0.002%  ------ ||
|| paw_species_calc_proj_prec_mat       :     1        0.12s   0.003%  ------ ||
|| paw_dataset_init                     :     1        0.16s   0.004%  ------ ||
|| density_init_guess_real              :     1        0.24s   0.007%  ------ ||
|| ngwfs_initialise_from_radial         :     2        0.67s   0.018%  ------ ||
|| restart_kernel_write                 :    15        0.70s   0.019%  ------ ||
|| sparse_init                          :     1        0.90s   0.025%  ------ ||
|| dense_normal_eigensolve              :     1        1.15s   0.032%  ------ ||
|| hartree_on_grid                      :   254        1.15s   0.032%  ------ ||
|| projectors_init_fftbox_recip         :   141        2.71s   0.075%  ------ ||
|| ewald_calculate_energy               :     1        2.93s   0.081%  ------ ||
|| fourier_apply_box_pair               :  2656        4.39s   0.121% 560.576 ||
|| basis_copy_function_to_box           : 24000        5.20s   0.144%  ------ ||
|| augmentation_screen_dij              :   259        5.73s   0.158%  ------ ||
|| sw_init                              :     1        6.73s   0.186%  ------ ||
|| sparse_embed_hotelling_invert_embed  :    27        7.53s   0.208%  ------ ||
|| ngwf_gradient_coeffs                 :    14        9.75s   0.269%  ------ ||
|| cell_grid_extract_box_real           : 10108       12.91s   0.356%  ------ ||
|| sparse_trace                         :  3066       13.59s   0.375%  ------ ||
|| fourier_apply_cell_backward          :  7845       13.71s   0.378%  70.074 ||
|| fourier_apply_cell_forward           :  7338       15.61s   0.431%  57.558 ||
|| cell_grid_deposit_box_real           : 32688       18.59s   0.513%  ------ ||
|| paw_dij_xc                           :   338       24.48s   0.676%  ------ ||
|| aug_nonlocal_mat                     :   324       34.81s   0.961%  ------ ||
|| density_fftbox_deposit_to_cell       : 16256       36.15s   0.998%  ------ ||
|| augmentation_density_on_grid         :   254       45.57s   1.258%  ------ ||
|| eigenstates_pdos                     :     1       46.75s   1.291%  ------ ||
|| hamiltonian_energy_components        :     3       47.14s   1.301%  ------ ||
|| eigenstates_calculate                :     1       50.51s   1.395%  ------ ||
|| function_ops_brappd_ketppd           :    56       52.74s   1.456%  ------ ||
|| projectors_func_ovlp_box             :    28       61.92s   1.709%  ------ ||
|| nlxc_vdw_energy                      :   506       71.01s   1.960%  ------ ||
|| xc_energy_potential                  :   253       71.73s   1.980%  ------ ||
|| integrals_kinetic                    :    27       89.74s   2.478%  ------ ||
|| properties_calculate                 :     1       90.78s   2.506%  ------ ||
|| dense_eigensolve                     :   223      102.74s   2.837%  ------ ||
|| potential_apply_to_ngwf_batch        :   316      120.19s   3.318%  ------ ||
|| sparse_product                       :  3087      123.51s   3.410%  ------ ||
|| restart_ngwfs_tightbox_output        :    13      138.82s   3.833%  ------ ||
|| basis_dot_function_with_box          : 7.513M     207.26s   5.722%  ------ ||
|| fourier_apply_box                    : 75552      234.56s   6.476% 979.779 ||
|| edft_diag_ngwf_ham                   :   222      238.90s   6.596%  ------ ||
|| projectors_gradient_batch            :    56      253.58s   7.001%  ------ ||
|| integrals_locpot_mat_els_batch       :   316      268.95s   7.425%  ------ ||
|| density_fftbox_interpolate_multiply  : 16256      315.34s   8.706%  ------ ||
|| projectors_grad_precond_batch        :    56      349.57s   9.651%  ------ ||
|| density_batch_interp_deposit         :  1016      386.81s  10.680%  ------ ||
|| integrals_locpot_dbl_grid            :    79      390.46s  10.780%  ------ ||
|| edft_apply_smearing_operator         :   222      470.49s  12.990%  ------ ||
|| basis_add_function_to_box            : 21.43M     570.60s  15.754%  ------ ||
|| ngwf_gradient_build_batch            :    56      645.31s  17.817%  ------ ||
|| density_batch_row_sums               :  1016      777.46s  21.465%  ------ ||
|| ngwf_gradient_batch                  :    56      857.26s  23.668%  ------ ||
|| ngwf_gradient_lnv                    :    14      890.07s  24.575%  ------ ||
|| density_on_dbl_grid                  :   254     1178.55s  32.539%  ------ ||
|| hamiltonian_lhxc_calculate           :   249     1279.83s  35.335%  ------ ||
|| edft_calculate                       :    14     2129.33s  58.790%  ------ ||
|| ngwf_cg_optimise                     :     1     3511.06s  96.939%  ------ ||
|| total_time                           :     1     3621.94s 100.000%  ------ ||
================================================================================
Overhead of generating timer report: 
- 0 ms averaging over threads,
- 5 ms ensuring consistency across MPI ranks,
- 0 ms printing in order.

Job completed: 21-02-2020 15:25 (-0000)

