 +---------------------------------------------------------------+
 |                                                               |
 |        ####### #     # ####### ####### ####### ######         |
 |        #     # ##    # #          #    #       #     #        |
 |        #     # # #   # #          #    #       #     #        |
 |        #     # #  #  # #####      #    #####   ######         |
 |        #     # #   # # #          #    #       #              |
 |        #     # #    ## #          #    #       #              |
 |        ####### #     # #######    #    ####### #              |
 |                                                               |
 |        Linear-Scaling Ab Initio Total Energy Program          |
 |                                                               |
 |          Release for academic collaborators of ODG            |
 |                                             Version 5.3.2.12  |
 |                                                               |
 +---------------------------------------------------------------+
 |                                                               |
 |  Authors:                                                     |
 |  Jacek Dziedzic, Peter D. Haynes, Nicholas D. M. Hine,        |
 |  Arash. A. Mostofi, Mike C. Payne and Chris-Kriton Skylaris   |
 |                                                               |
 |  Contributors:                                                |
 |  J. Aarons, L. Andrinopoulos, P. W. Avraam, R. A. Bell,       |
 |  A. Bhandari, G. A. Bramley, R. J. Charlton, S. J. Clark,     |
 |  R. J. Clements, G. C. Constantinescu, F. Corsetti,           |
 |  N. Corsini, O. Dieguez, S. M. M. Dubois, K. K. B. Duff,      |
 |  J. M. Escartin, A. Greco, H. Helal, Q. O. Hill, L. P. Lee,   |
 |  J.-H. Li, E. B. Linscott, G. Moynihan, D. D. O`Regan,        |
 |  O. K. Okan, M. J. S. Phipps, C. J. Pickard,                  |
 |  J. C. A. Prentice, M. I. J. Probert, L. E. Ratcliff,         |
 |  M. Robinson, A. Ruiz Serrano, J. S. Spencer, E. W. Tait,     |
 |  G. Teobaldi, D. Turban, V. Vitale, K. A. Wilkinson,          |
 |  C. Weber, J. C. Womack, N. Yeung and T. J. Zuehlsdorff       |
 |                                                               |
 |                                   Copyright (c) 2004-2020     |
 |                                                               |
 |  Please cite:                                                 |
 |  "Introducing ONETEP: Linear-scaling density functional       |
 |   simulations on parallel computers".                         |
 |   C.-K. Skylaris, P. D. Haynes, A. A. Mostofi, M. C. Payne.   |
 |   J. Chem. Phys. 122 084119 (2005).                           |
 |                                                               |
 |          in all publications arising from your use of ONETEP. |
 |                                                               |
 +---------------------------------------------------------------+
 |                                                               |
 |   ONETEP is based on developments described in the following  |
 |   publications:                                               |
 |                                                               |
 |  "Nonorthogonal generalized Wannier function pseudopotential  |
 |   plane-wave method".                                         |
 |   C.-K. Skylaris, A. A. Mostofi, P. D. Haynes, O. Dieguez,    |
 |   M. C. Payne.                                                |
 |   Phys. Rev. B 66 035119 (2002).                              |
 |                                                               |
 |  "Preconditioned iterative minimization for linear-scaling    |
 |   electronic structure calculations".                         |
 |   A. A. Mostofi, P. D. Haynes, C.-K. Skylaris, M. C. Payne.   |
 |   J. Chem. Phys. 119(17), pp.8842-8848 (2003).                |
 |                                                               |
 |  "Total-energy calculations on a real space grid with         |
 |   localized functions and a plane-wave basis".                |
 |   A. A. Mostofi, C.-K. Skylaris, P. D. Haynes, M. C. Payne.   |
 |   Comput. Phys. Commun. 147, pp.788-802 (2002).               |
 |                                                               |
 |  "Accurate kinetic energy evaluation in electronic structure  |
 |   calculations with localized functions on real space grids"  |
 |   C.-K. Skylaris, A. A. Mostofi, P. D. Haynes, C. J. Pickard, |
 |   M. C. Payne.                                                |
 |   Comput. Phys. Commun. 140, pp.315-322 (2001).               |
 |                                                               |
 |  "Accurate ionic forces and geometry optimization in linear-  |
 |   scaling density-functional theory with local orbitals"      |
 |   N. D. M. Hine, M. Robinson, P. D. Haynes, C.-K. Skylaris,   |
 |   M. C. Payne, and A. A. Mostofi.                             |
 |   Phys. Rev. B 83 195102 (2011).                              |
 |                                                               |
 +---------------------------------------------------------------+

Job started: 29-02-2020 13:13 (-0000)
 
Reading parameters from file "3.6491432_GO_manual_4x64graphite.dat" ...

WARNING: "cutoff_energy" not specified, but "psinc_spacing" specified.
         Using the latter to set the KE cutoff energy to  732.32021eV,
         thus *overriding* the default.

... done

If your calculation crashes here, before "Checking processes and threads..."
is displayed, then your stack size is insufficient.
If so, use "ulimit -s unlimited" at runtime.
You can disable this check with "check_stack_size F".

Checking processes and threads...
   Determining the default number of threads...
      No default threads set at compilation time: defaulting to 1.
      OpenMP library call suggests 4 threads.
      Hybrid MPI-OpenMP compilation detected.
      Number of MPI processes > 1.
      OMP_NUM_THREADS environment variable present and
      its value matches the one obtained from the OpenMP library call.
      Using this value as default.
      Default threads: 4
      Default applies to threads_max and threads_num_fftboxes.
      Settings in the input file override this default.
   ... done

   Running with 40 MPI processes.
   There are 10 MPI processes running on the same node as the root process.
   Each MPI process is using: 
               1 threads for simulation cell FFTs.
               1 threads for parallel FFT box operations.
               4 threads for loops over batched FFT box operations.
               4 threads in other parallel regions.
... done

Basic input checks...
Resetting ngwf_cg_rotate to TRUE for EDFT calculations
... done

Reading geometry and species blocks from file "3.6491432_GO_manual_4x64graphite.dat" ...
    
  PSINC grid spacing along a1 set to   0.511215680000a0 from input file.
  PSINC grid spacing along a2 set to   0.531284090000a0 from input file.
  PSINC grid spacing along a3 set to   0.507051130000a0 from input file.
  Number of PPD points along a3 set to 1.  This is 
  the default value, it may have been provided also in the input file.
... done
 Writing xyz coordinates to file "3.6491432_GO_manual_4x64graphite.xyz" ... done


--------------------------------------------------------------------------------
---------------------------------- INPUT FILE ----------------------------------
--------------------------------------------------------------------------------

task : singlepoint                                                              
do_properties : true                                                            
dx_format T                                                                     
edft T                                                                          
output_detail VERBOSE                                                           
write_xyz T                                                                     
xc_functional VV10                                                              
PSINC_SPACING 0.51121568 0.53128409 0.50705113                                  
paw T                                                                           
pdos_max_l = 2                                                                  
dos_smear  0.1 eV                                                               
popn_calculate T                                                                
PDOS_PSEUDOATOMIC T                                                             
PDOS_REDUCE_SWS F                                                               
PDOS_CONSTRUCT_BASIS F                                                          
PDOS_LOWDIN T                                                                   
PDOS_ORTH_ATOM_BLOCKS F                                                         
PDOS_LCAO_OPTIMIZE F                                                            
pdos_optados_output T                                                           
homo_plot 0                                                                     
lumo_plot 0                                                                     
homo_dens_plot -1                                                               
lumo_dens_plot -1                                                               
%BLOCK SPECIES                                                                  
C C 6 4 9.0                                                                     
%ENDBLOCK SPECIES                                                               
%BLOCK SPECIES_POT                                                              
C "~/pp/paw/c_pbe_abinit.paw"                                                   
%ENDBLOCK SPECIES_POT                                                           
%BLOCK SPECIES_ATOMIC_SET                                                       
C "SOLVE conf=2s2 2p2"                                                          
%ENDBLOCK SPECIES_ATOMIC_SET                                                    
%BLOCK LATTICE_CART                                                             
32.21  0.00  0.00                                                               
0.00 18.59  0.00                                                                
0.00  0.00 68.96                                                                
%ENDBLOCK LATTICE_CART                                                          
%BLOCK POSITIONS_ABS                                                            
C  0.00  0.00  3.45                                                             
C  0.00  0.00 17.24                                                             
C  0.00  0.00 31.03                                                             
C  0.00  0.00 44.82                                                             
C  0.00  0.00 58.62                                                             
C  0.00  4.65  3.45                                                             
C  0.00  4.65 17.24                                                             
C  0.00  4.65 31.03                                                             
C  0.00  4.65 44.82                                                             
C  0.00  4.65 58.62                                                             
C  4.03  2.32  3.45                                                             
C  4.03  2.32 17.24                                                             
C  4.03  2.32 31.03                                                             
C  4.03  2.32 44.82                                                             
C  4.03  2.32 58.62                                                             
C  8.05  0.00  3.45                                                             
C  8.05  0.00 17.24                                                             
C  8.05  0.00 31.03                                                             
C  8.05  0.00 44.82                                                             
C  8.05  0.00 58.62                                                             
C  0.00  9.30  3.45                                                             
C  0.00  9.30 17.24                                                             
C  0.00  9.30 31.03                                                             
C  0.00  9.30 44.82                                                             
C  0.00  9.30 58.62                                                             
C  4.03  6.97  3.45                                                             
C  4.03  6.97 17.24                                                             
C  4.03  6.97 31.03                                                             
C  4.03  6.97 44.82                                                             
C  4.03  6.97 58.62                                                             
C  8.05  4.65  3.45                                                             
C  8.05  4.65 17.24                                                             
C  8.05  4.65 31.03                                                             
C  8.05  4.65 44.82                                                             
C  8.05  4.65 58.62                                                             
C 12.08  2.32  3.45                                                             
C 12.08  2.32 17.24                                                             
C 12.08  2.32 31.03                                                             
C 12.08  2.32 44.82                                                             
C 12.08  2.32 58.62                                                             
C 16.10  0.00  3.45                                                             
C 16.10  0.00 17.24                                                             
C 16.10  0.00 31.03                                                             
C 16.10  0.00 44.82                                                             
C 16.10  0.00 58.62                                                             
C  0.00 13.95  3.45                                                             
C  0.00 13.95 17.24                                                             
C  0.00 13.95 31.03                                                             
C  0.00 13.95 44.82                                                             
C  0.00 13.95 58.62                                                             
C  4.03 11.62  3.45                                                             
C  4.03 11.62 17.24                                                             
C  4.03 11.62 31.03                                                             
C  4.03 11.62 44.82                                                             
C  4.03 11.62 58.62                                                             
C  8.05  9.30  3.45                                                             
C  8.05  9.30 17.24                                                             
C  8.05  9.30 31.03                                                             
C  8.05  9.30 44.82                                                             
C  8.05  9.30 58.62                                                             
C 12.08  6.97  3.45                                                             
C 12.08  6.97 17.24                                                             
C 12.08  6.97 31.03                                                             
C 12.08  6.97 44.82                                                             
C 12.08  6.97 58.62                                                             
C 16.10  4.65  3.45                                                             
C 16.10  4.65 17.24                                                             
C 16.10  4.65 31.03                                                             
C 16.10  4.65 44.82                                                             
C 16.10  4.65 58.62                                                             
C 20.13  2.32  3.45                                                             
C 20.13  2.32 17.24                                                             
C 20.13  2.32 31.03                                                             
C 20.13  2.32 44.82                                                             
C 20.13  2.32 58.62                                                             
C 24.16  0.00  3.45                                                             
C 24.16  0.00 17.24                                                             
C 24.16  0.00 31.03                                                             
C 24.16  0.00 44.82                                                             
C 24.16  0.00 58.62                                                             
C  4.03 16.27  3.45                                                             
C  4.03 16.27 17.24                                                             
C  4.03 16.27 31.03                                                             
C  4.03 16.27 44.82                                                             
C  4.03 16.27 58.62                                                             
C  8.05 13.95  3.45                                                             
C  8.05 13.95 17.24                                                             
C  8.05 13.95 31.03                                                             
C  8.05 13.95 44.82                                                             
C  8.05 13.95 58.62                                                             
C 12.08 11.62  3.45                                                             
C 12.08 11.62 17.24                                                             
C 12.08 11.62 31.03                                                             
C 12.08 11.62 44.82                                                             
C 12.08 11.62 58.62                                                             
C 16.10  9.30  3.45                                                             
C 16.10  9.30 17.24                                                             
C 16.10  9.30 31.03                                                             
C 16.10  9.30 44.82                                                             
C 16.10  9.30 58.62                                                             
C 20.13  6.97  3.45                                                             
C 20.13  6.97 17.24                                                             
C 20.13  6.97 31.03                                                             
C 20.13  6.97 44.82                                                             
C 20.13  6.97 58.62                                                             
C 24.16  4.65  3.45                                                             
C 24.16  4.65 17.24                                                             
C 24.16  4.65 31.03                                                             
C 24.16  4.65 44.82                                                             
C 24.16  4.65 58.62                                                             
C 28.18  2.32  3.45                                                             
C 28.18  2.32 17.24                                                             
C 28.18  2.32 31.03                                                             
C 28.18  2.32 44.82                                                             
C 28.18  2.32 58.62                                                             
C 12.08 16.27  3.45                                                             
C 12.08 16.27 17.24                                                             
C 12.08 16.27 31.03                                                             
C 12.08 16.27 44.82                                                             
C 12.08 16.27 58.62                                                             
C 16.10 13.95  3.45                                                             
C 16.10 13.95 17.24                                                             
C 16.10 13.95 31.03                                                             
C 16.10 13.95 44.82                                                             
C 16.10 13.95 58.62                                                             
C 20.13 11.62  3.45                                                             
C 20.13 11.62 17.24                                                             
C 20.13 11.62 31.03                                                             
C 20.13 11.62 44.82                                                             
C 20.13 11.62 58.62                                                             
C 24.16  9.30  3.45                                                             
C 24.16  9.30 17.24                                                             
C 24.16  9.30 31.03                                                             
C 24.16  9.30 44.82                                                             
C 24.16  9.30 58.62                                                             
C 28.18  6.97  3.45                                                             
C 28.18  6.97 17.24                                                             
C 28.18  6.97 31.03                                                             
C 28.18  6.97 44.82                                                             
C 28.18  6.97 58.62                                                             
C 20.13 16.27  3.45                                                             
C 20.13 16.27 17.24                                                             
C 20.13 16.27 31.03                                                             
C 20.13 16.27 44.82                                                             
C 20.13 16.27 58.62                                                             
C 24.16 13.95  3.45                                                             
C 24.16 13.95 17.24                                                             
C 24.16 13.95 31.03                                                             
C 24.16 13.95 44.82                                                             
C 24.16 13.95 58.62                                                             
C 28.18 11.62  3.45                                                             
C 28.18 11.62 17.24                                                             
C 28.18 11.62 31.03                                                             
C 28.18 11.62 44.82                                                             
C 28.18 11.62 58.62                                                             
C 28.18 16.27  3.45                                                             
C 28.18 16.27 17.24                                                             
C 28.18 16.27 31.03                                                             
C 28.18 16.27 44.82                                                             
C 28.18 16.27 58.62                                                             
C  0.00  0.00 10.34                                                             
C  0.00  0.00 24.14                                                             
C  0.00  0.00 37.93                                                             
C  0.00  0.00 51.72                                                             
C  0.00  0.00 65.51                                                             
C  0.00  4.65 10.34                                                             
C  0.00  4.65 24.14                                                             
C  0.00  4.65 37.93                                                             
C  0.00  4.65 51.72                                                             
C  0.00  4.65 65.51                                                             
C  4.03  2.32 10.34                                                             
C  4.03  2.32 24.14                                                             
C  4.03  2.32 37.93                                                             
C  4.03  2.32 51.72                                                             
C  4.03  2.32 65.51                                                             
C  8.05  0.00 10.34                                                             
C  8.05  0.00 24.14                                                             
C  8.05  0.00 37.93                                                             
C  8.05  0.00 51.72                                                             
C  8.05  0.00 65.51                                                             
C  0.00  9.30 10.34                                                             
C  0.00  9.30 24.14                                                             
C  0.00  9.30 37.93                                                             
C  0.00  9.30 51.72                                                             
C  0.00  9.30 65.51                                                             
C  4.03  6.97 10.34                                                             
C  4.03  6.97 24.14                                                             
C  4.03  6.97 37.93                                                             
C  4.03  6.97 51.72                                                             
C  4.03  6.97 65.51                                                             
C  8.05  4.65 10.34                                                             
C  8.05  4.65 24.14                                                             
C  8.05  4.65 37.93                                                             
C  8.05  4.65 51.72                                                             
C  8.05  4.65 65.51                                                             
C 12.08  2.32 10.34                                                             
C 12.08  2.32 24.14                                                             
C 12.08  2.32 37.93                                                             
C 12.08  2.32 51.72                                                             
C 12.08  2.32 65.51                                                             
C 16.10  0.00 10.34                                                             
C 16.10  0.00 24.14                                                             
C 16.10  0.00 37.93                                                             
C 16.10  0.00 51.72                                                             
C 16.10  0.00 65.51                                                             
C  0.00 13.95 10.34                                                             
C  0.00 13.95 24.14                                                             
C  0.00 13.95 37.93                                                             
C  0.00 13.95 51.72                                                             
C  0.00 13.95 65.51                                                             
C  4.03 11.62 10.34                                                             
C  4.03 11.62 24.14                                                             
C  4.03 11.62 37.93                                                             
C  4.03 11.62 51.72                                                             
C  4.03 11.62 65.51                                                             
C  8.05  9.30 10.34                                                             
C  8.05  9.30 24.14                                                             
C  8.05  9.30 37.93                                                             
C  8.05  9.30 51.72                                                             
C  8.05  9.30 65.51                                                             
C 12.08  6.97 10.34                                                             
C 12.08  6.97 24.14                                                             
C 12.08  6.97 37.93                                                             
C 12.08  6.97 51.72                                                             
C 12.08  6.97 65.51                                                             
C 16.10  4.65 10.34                                                             
C 16.10  4.65 24.14                                                             
C 16.10  4.65 37.93                                                             
C 16.10  4.65 51.72                                                             
C 16.10  4.65 65.51                                                             
C 20.13  2.32 10.34                                                             
C 20.13  2.32 24.14                                                             
C 20.13  2.32 37.93                                                             
C 20.13  2.32 51.72                                                             
C 20.13  2.32 65.51                                                             
C 24.16  0.00 10.34                                                             
C 24.16  0.00 24.14                                                             
C 24.16  0.00 37.93                                                             
C 24.16  0.00 51.72                                                             
C 24.16  0.00 65.51                                                             
C  4.03 16.27 10.34                                                             
C  4.03 16.27 24.14                                                             
C  4.03 16.27 37.93                                                             
C  4.03 16.27 51.72                                                             
C  4.03 16.27 65.51                                                             
C  8.05 13.95 10.34                                                             
C  8.05 13.95 24.14                                                             
C  8.05 13.95 37.93                                                             
C  8.05 13.95 51.72                                                             
C  8.05 13.95 65.51                                                             
C 12.08 11.62 10.34                                                             
C 12.08 11.62 24.14                                                             
C 12.08 11.62 37.93                                                             
C 12.08 11.62 51.72                                                             
C 12.08 11.62 65.51                                                             
C 16.10  9.30 10.34                                                             
C 16.10  9.30 24.14                                                             
C 16.10  9.30 37.93                                                             
C 16.10  9.30 51.72                                                             
C 16.10  9.30 65.51                                                             
C 20.13  6.97 10.34                                                             
C 20.13  6.97 24.14                                                             
C 20.13  6.97 37.93                                                             
C 20.13  6.97 51.72                                                             
C 20.13  6.97 65.51                                                             
C 24.16  4.65 10.34                                                             
C 24.16  4.65 24.14                                                             
C 24.16  4.65 37.93                                                             
C 24.16  4.65 51.72                                                             
C 24.16  4.65 65.51                                                             
C 28.18  2.32 10.34                                                             
C 28.18  2.32 24.14                                                             
C 28.18  2.32 37.93                                                             
C 28.18  2.32 51.72                                                             
C 28.18  2.32 65.51                                                             
C 12.08 16.27 10.34                                                             
C 12.08 16.27 24.14                                                             
C 12.08 16.27 37.93                                                             
C 12.08 16.27 51.72                                                             
C 12.08 16.27 65.51                                                             
C 16.10 13.95 10.34                                                             
C 16.10 13.95 24.14                                                             
C 16.10 13.95 37.93                                                             
C 16.10 13.95 51.72                                                             
C 16.10 13.95 65.51                                                             
C 20.13 11.62 10.34                                                             
C 20.13 11.62 24.14                                                             
C 20.13 11.62 37.93                                                             
C 20.13 11.62 51.72                                                             
C 20.13 11.62 65.51                                                             
C 24.16  9.30 10.34                                                             
C 24.16  9.30 24.14                                                             
C 24.16  9.30 37.93                                                             
C 24.16  9.30 51.72                                                             
C 24.16  9.30 65.51                                                             
C 28.18  6.97 10.34                                                             
C 28.18  6.97 24.14                                                             
C 28.18  6.97 37.93                                                             
C 28.18  6.97 51.72                                                             
C 28.18  6.97 65.51                                                             
C 20.13 16.27 10.34                                                             
C 20.13 16.27 24.14                                                             
C 20.13 16.27 37.93                                                             
C 20.13 16.27 51.72                                                             
C 20.13 16.27 65.51                                                             
C 24.16 13.95 10.34                                                             
C 24.16 13.95 24.14                                                             
C 24.16 13.95 37.93                                                             
C 24.16 13.95 51.72                                                             
C 24.16 13.95 65.51                                                             
C 28.18 11.62 10.34                                                             
C 28.18 11.62 24.14                                                             
C 28.18 11.62 37.93                                                             
C 28.18 11.62 51.72                                                             
C 28.18 11.62 65.51                                                             
C 28.18 16.27 10.34                                                             
C 28.18 16.27 24.14                                                             
C 28.18 16.27 37.93                                                             
C 28.18 16.27 51.72                                                             
C 28.18 16.27 65.51                                                             
C  1.34  2.32  3.45                                                             
C  1.34  2.32 17.24                                                             
C  1.34  2.32 31.03                                                             
C  1.34  2.32 44.82                                                             
C  1.34  2.32 58.62                                                             
C  5.37  0.00  3.45                                                             
C  5.37  0.00 17.24                                                             
C  5.37  0.00 31.03                                                             
C  5.37  0.00 44.82                                                             
C  5.37  0.00 58.62                                                             
C  1.34  6.97  3.45                                                             
C  1.34  6.97 17.24                                                             
C  1.34  6.97 31.03                                                             
C  1.34  6.97 44.82                                                             
C  1.34  6.97 58.62                                                             
C  5.37  4.65  3.45                                                             
C  5.37  4.65 17.24                                                             
C  5.37  4.65 31.03                                                             
C  5.37  4.65 44.82                                                             
C  5.37  4.65 58.62                                                             
C  9.39  2.32  3.45                                                             
C  9.39  2.32 17.24                                                             
C  9.39  2.32 31.03                                                             
C  9.39  2.32 44.82                                                             
C  9.39  2.32 58.62                                                             
C 13.42  0.00  3.45                                                             
C 13.42  0.00 17.24                                                             
C 13.42  0.00 31.03                                                             
C 13.42  0.00 44.82                                                             
C 13.42  0.00 58.62                                                             
C  1.34 11.62  3.45                                                             
C  1.34 11.62 17.24                                                             
C  1.34 11.62 31.03                                                             
C  1.34 11.62 44.82                                                             
C  1.34 11.62 58.62                                                             
C  5.37  9.30  3.45                                                             
C  5.37  9.30 17.24                                                             
C  5.37  9.30 31.03                                                             
C  5.37  9.30 44.82                                                             
C  5.37  9.30 58.62                                                             
C  9.39  6.97  3.45                                                             
C  9.39  6.97 17.24                                                             
C  9.39  6.97 31.03                                                             
C  9.39  6.97 44.82                                                             
C  9.39  6.97 58.62                                                             
C 13.42  4.65  3.45                                                             
C 13.42  4.65 17.24                                                             
C 13.42  4.65 31.03                                                             
C 13.42  4.65 44.82                                                             
C 13.42  4.65 58.62                                                             
C 17.45  2.32  3.45                                                             
C 17.45  2.32 17.24                                                             
C 17.45  2.32 31.03                                                             
C 17.45  2.32 44.82                                                             
C 17.45  2.32 58.62                                                             
C 21.47  0.00  3.45                                                             
C 21.47  0.00 17.24                                                             
C 21.47  0.00 31.03                                                             
C 21.47  0.00 44.82                                                             
C 21.47  0.00 58.62                                                             
C  1.34 16.27  3.45                                                             
C  1.34 16.27 17.24                                                             
C  1.34 16.27 31.03                                                             
C  1.34 16.27 44.82                                                             
C  1.34 16.27 58.62                                                             
C  5.37 13.95  3.45                                                             
C  5.37 13.95 17.24                                                             
C  5.37 13.95 31.03                                                             
C  5.37 13.95 44.82                                                             
C  5.37 13.95 58.62                                                             
C  9.39 11.62  3.45                                                             
C  9.39 11.62 17.24                                                             
C  9.39 11.62 31.03                                                             
C  9.39 11.62 44.82                                                             
C  9.39 11.62 58.62                                                             
C 13.42  9.30  3.45                                                             
C 13.42  9.30 17.24                                                             
C 13.42  9.30 31.03                                                             
C 13.42  9.30 44.82                                                             
C 13.42  9.30 58.62                                                             
C 17.45  6.97  3.45                                                             
C 17.45  6.97 17.24                                                             
C 17.45  6.97 31.03                                                             
C 17.45  6.97 44.82                                                             
C 17.45  6.97 58.62                                                             
C 21.47  4.65  3.45                                                             
C 21.47  4.65 17.24                                                             
C 21.47  4.65 31.03                                                             
C 21.47  4.65 44.82                                                             
C 21.47  4.65 58.62                                                             
C 25.50  2.32  3.45                                                             
C 25.50  2.32 17.24                                                             
C 25.50  2.32 31.03                                                             
C 25.50  2.32 44.82                                                             
C 25.50  2.32 58.62                                                             
C 29.52  0.00  3.45                                                             
C 29.52  0.00 17.24                                                             
C 29.52  0.00 31.03                                                             
C 29.52  0.00 44.82                                                             
C 29.52  0.00 58.62                                                             
C  9.39 16.27  3.45                                                             
C  9.39 16.27 17.24                                                             
C  9.39 16.27 31.03                                                             
C  9.39 16.27 44.82                                                             
C  9.39 16.27 58.62                                                             
C 13.42 13.95  3.45                                                             
C 13.42 13.95 17.24                                                             
C 13.42 13.95 31.03                                                             
C 13.42 13.95 44.82                                                             
C 13.42 13.95 58.62                                                             
C 17.45 11.62  3.45                                                             
C 17.45 11.62 17.24                                                             
C 17.45 11.62 31.03                                                             
C 17.45 11.62 44.82                                                             
C 17.45 11.62 58.62                                                             
C 21.47  9.30  3.45                                                             
C 21.47  9.30 17.24                                                             
C 21.47  9.30 31.03                                                             
C 21.47  9.30 44.82                                                             
C 21.47  9.30 58.62                                                             
C 25.50  6.97  3.45                                                             
C 25.50  6.97 17.24                                                             
C 25.50  6.97 31.03                                                             
C 25.50  6.97 44.82                                                             
C 25.50  6.97 58.62                                                             
C 29.52  4.65  3.45                                                             
C 29.52  4.65 17.24                                                             
C 29.52  4.65 31.03                                                             
C 29.52  4.65 44.82                                                             
C 29.52  4.65 58.62                                                             
C 17.45 16.27  3.45                                                             
C 17.45 16.27 17.24                                                             
C 17.45 16.27 31.03                                                             
C 17.45 16.27 44.82                                                             
C 17.45 16.27 58.62                                                             
C 21.47 13.95  3.45                                                             
C 21.47 13.95 17.24                                                             
C 21.47 13.95 31.03                                                             
C 21.47 13.95 44.82                                                             
C 21.47 13.95 58.62                                                             
C 25.50 11.62  3.45                                                             
C 25.50 11.62 17.24                                                             
C 25.50 11.62 31.03                                                             
C 25.50 11.62 44.82                                                             
C 25.50 11.62 58.62                                                             
C 29.52  9.30  3.45                                                             
C 29.52  9.30 17.24                                                             
C 29.52  9.30 31.03                                                             
C 29.52  9.30 44.82                                                             
C 29.52  9.30 58.62                                                             
C 25.50 16.27  3.45                                                             
C 25.50 16.27 17.24                                                             
C 25.50 16.27 31.03                                                             
C 25.50 16.27 44.82                                                             
C 25.50 16.27 58.62                                                             
C 29.52 13.95  3.45                                                             
C 29.52 13.95 17.24                                                             
C 29.52 13.95 31.03                                                             
C 29.52 13.95 44.82                                                             
C 29.52 13.95 58.62                                                             
C  2.68  0.00 10.34                                                             
C  2.68  0.00 24.14                                                             
C  2.68  0.00 37.93                                                             
C  2.68  0.00 51.72                                                             
C  2.68  0.00 65.51                                                             
C  2.68  4.65 10.34                                                             
C  2.68  4.65 24.14                                                             
C  2.68  4.65 37.93                                                             
C  2.68  4.65 51.72                                                             
C  2.68  4.65 65.51                                                             
C  6.71  2.32 10.34                                                             
C  6.71  2.32 24.14                                                             
C  6.71  2.32 37.93                                                             
C  6.71  2.32 51.72                                                             
C  6.71  2.32 65.51                                                             
C 10.74  0.00 10.34                                                             
C 10.74  0.00 24.14                                                             
C 10.74  0.00 37.93                                                             
C 10.74  0.00 51.72                                                             
C 10.74  0.00 65.51                                                             
C  2.68  9.30 10.34                                                             
C  2.68  9.30 24.14                                                             
C  2.68  9.30 37.93                                                             
C  2.68  9.30 51.72                                                             
C  2.68  9.30 65.51                                                             
C  6.71  6.97 10.34                                                             
C  6.71  6.97 24.14                                                             
C  6.71  6.97 37.93                                                             
C  6.71  6.97 51.72                                                             
C  6.71  6.97 65.51                                                             
C 10.74  4.65 10.34                                                             
C 10.74  4.65 24.14                                                             
C 10.74  4.65 37.93                                                             
C 10.74  4.65 51.72                                                             
C 10.74  4.65 65.51                                                             
C 14.76  2.32 10.34                                                             
C 14.76  2.32 24.14                                                             
C 14.76  2.32 37.93                                                             
C 14.76  2.32 51.72                                                             
C 14.76  2.32 65.51                                                             
C 18.79  0.00 10.34                                                             
C 18.79  0.00 24.14                                                             
C 18.79  0.00 37.93                                                             
C 18.79  0.00 51.72                                                             
C 18.79  0.00 65.51                                                             
C  2.68 13.95 10.34                                                             
C  2.68 13.95 24.14                                                             
C  2.68 13.95 37.93                                                             
C  2.68 13.95 51.72                                                             
C  2.68 13.95 65.51                                                             
C  6.71 11.62 10.34                                                             
C  6.71 11.62 24.14                                                             
C  6.71 11.62 37.93                                                             
C  6.71 11.62 51.72                                                             
C  6.71 11.62 65.51                                                             
C 10.74  9.30 10.34                                                             
C 10.74  9.30 24.14                                                             
C 10.74  9.30 37.93                                                             
C 10.74  9.30 51.72                                                             
C 10.74  9.30 65.51                                                             
C 14.76  6.97 10.34                                                             
C 14.76  6.97 24.14                                                             
C 14.76  6.97 37.93                                                             
C 14.76  6.97 51.72                                                             
C 14.76  6.97 65.51                                                             
C 18.79  4.65 10.34                                                             
C 18.79  4.65 24.14                                                             
C 18.79  4.65 37.93                                                             
C 18.79  4.65 51.72                                                             
C 18.79  4.65 65.51                                                             
C 22.81  2.32 10.34                                                             
C 22.81  2.32 24.14                                                             
C 22.81  2.32 37.93                                                             
C 22.81  2.32 51.72                                                             
C 22.81  2.32 65.51                                                             
C 26.84  0.00 10.34                                                             
C 26.84  0.00 24.14                                                             
C 26.84  0.00 37.93                                                             
C 26.84  0.00 51.72                                                             
C 26.84  0.00 65.51                                                             
C  6.71 16.27 10.34                                                             
C  6.71 16.27 24.14                                                             
C  6.71 16.27 37.93                                                             
C  6.71 16.27 51.72                                                             
C  6.71 16.27 65.51                                                             
C 10.74 13.95 10.34                                                             
C 10.74 13.95 24.14                                                             
C 10.74 13.95 37.93                                                             
C 10.74 13.95 51.72                                                             
C 10.74 13.95 65.51                                                             
C 14.76 11.62 10.34                                                             
C 14.76 11.62 24.14                                                             
C 14.76 11.62 37.93                                                             
C 14.76 11.62 51.72                                                             
C 14.76 11.62 65.51                                                             
C 18.79  9.30 10.34                                                             
C 18.79  9.30 24.14                                                             
C 18.79  9.30 37.93                                                             
C 18.79  9.30 51.72                                                             
C 18.79  9.30 65.51                                                             
C 22.81  6.97 10.34                                                             
C 22.81  6.97 24.14                                                             
C 22.81  6.97 37.93                                                             
C 22.81  6.97 51.72                                                             
C 22.81  6.97 65.51                                                             
C 26.84  4.65 10.34                                                             
C 26.84  4.65 24.14                                                             
C 26.84  4.65 37.93                                                             
C 26.84  4.65 51.72                                                             
C 26.84  4.65 65.51                                                             
C 30.86  2.32 10.34                                                             
C 30.86  2.32 24.14                                                             
C 30.86  2.32 37.93                                                             
C 30.86  2.32 51.72                                                             
C 30.86  2.32 65.51                                                             
C 14.76 16.27 10.34                                                             
C 14.76 16.27 24.14                                                             
C 14.76 16.27 37.93                                                             
C 14.76 16.27 51.72                                                             
C 14.76 16.27 65.51                                                             
C 18.79 13.95 10.34                                                             
C 18.79 13.95 24.14                                                             
C 18.79 13.95 37.93                                                             
C 18.79 13.95 51.72                                                             
C 18.79 13.95 65.51                                                             
C 22.81 11.62 10.34                                                             
C 22.81 11.62 24.14                                                             
C 22.81 11.62 37.93                                                             
C 22.81 11.62 51.72                                                             
C 22.81 11.62 65.51                                                             
C 26.84  9.30 10.34                                                             
C 26.84  9.30 24.14                                                             
C 26.84  9.30 37.93                                                             
C 26.84  9.30 51.72                                                             
C 26.84  9.30 65.51                                                             
C 30.86  6.97 10.34                                                             
C 30.86  6.97 24.14                                                             
C 30.86  6.97 37.93                                                             
C 30.86  6.97 51.72                                                             
C 30.86  6.97 65.51                                                             
C 22.81 16.27 10.34                                                             
C 22.81 16.27 24.14                                                             
C 22.81 16.27 37.93                                                             
C 22.81 16.27 51.72                                                             
C 22.81 16.27 65.51                                                             
C 26.84 13.95 10.34                                                             
C 26.84 13.95 24.14                                                             
C 26.84 13.95 37.93                                                             
C 26.84 13.95 51.72                                                             
C 26.84 13.95 65.51                                                             
C 30.86 11.62 10.34                                                             
C 30.86 11.62 24.14                                                             
C 30.86 11.62 37.93                                                             
C 30.86 11.62 51.72                                                             
C 30.86 11.62 65.51                                                             
C 30.86 16.27 10.34                                                             
C 30.86 16.27 24.14                                                             
C 30.86 16.27 37.93                                                             
C 30.86 16.27 51.72                                                             
C 30.86 16.27 65.51                                                             
%ENDBLOCK POSITIONS_ABS                                                         

--------------------------------------------------------------------------------
-------------------------------- END INPUT FILE --------------------------------
--------------------------------------------------------------------------------


 
<<<<<<<<<<<<<<<<<<<<<<<<<<<<<<<<< Full system >>>>>>>>>>>>>>>>>>>>>>>>>>>>>>>>>>
<<<<<<<<<<<<<<<<<<<<<<<<<<< PAW Dataset information >>>>>>>>>>>>>>>>>>>>>>>>>>>
File: ~/pp/paw/c_pbe_abinit.paw; rc = 1.25 bohr; shape type =  3; rshape = 1.25 bohr;
  Atomic number:  6;  ionic charge:  4.000000
    Partial Wave 1: l = 0
    Partial Wave 2: l = 0
    Partial Wave 3: l = 1
    Partial Wave 4: l = 1
  Core charge supplied for Nonlinear Core Corrections
<<<<<<<<<<<<<<<<<<<<<<<<<<<<<<<<<<<<<<< >>>>>>>>>>>>>>>>>>>>>>>>>>>>>>>>>>>>>>>

-------------------------- Atom counting information ---------------------------
Symbol    Natoms    Nngwfs    Nprojs
  C        640      2560      5120
.......   ......    ......    ......
Totals:    640      2560      5120
--------------------------------------------------------------------------------

=============================== PSINC grid sizes ===============================
                      Simulation cell:   63 x  35 x 136
                              FFT-box:   63 x  35 x 117
                                  PPD:    7 x   5 x   1
Grid space d1=  0.511269841270a0 (KE cutoff=  29.06054Eh = 790.77748eV)
Grid space d2=  0.531142857143a0 (KE cutoff=  26.92659Eh = 732.70972eV)
Grid space d3=  0.507058823529a0 (KE cutoff=  29.54523Eh = 803.96650eV)
================================================================================
  
WARNING in cell_grid_distribute:
Average of less than one 23-slab per node, so workload cannot be
equally balanced between nodes.

********************* Fourier parallelisation information **********************
       Coarse grid (whole simulation cell) dimensions:     63    35   136
          Real-space ('12') slabs/node (min max mean):      3     4     3
         Recip-space ('23') slabs/node (min max mean):      0     1     0
********************************************************************************

********************* Fourier parallelisation information **********************
       Double grid (whole simulation cell) dimensions:    126    70   272
          Real-space ('12') slabs/node (min max mean):      6     7     6
         Recip-space ('23') slabs/node (min max mean):      1     2     1
********************************************************************************

Atom SCF Calculation for C  : Z (AE atom) =   6 : Z (PS atom) =   4
Config String: 2s2 2p2
Orbitals (num,occ):  2     2.00 2.00
Orbitals   (num,l):  2        0    1
Real-space Grid (nr,dr,rmax): 1293    0.0069659443    9.0000000000
Spherical Bessel Basis (nsws,lmax,cutoff):   37    2  161.4736382572
Confining potential (l,width,scale):  0    3.0000000000  100.0000000000
Confining potential (l,width,scale):  1    3.0000000000  100.0000000000
  1         -5.4283124456   -1.2935102156    4.5135257941   -1.5923561795
  2         -5.4241534249   -1.3636937911    4.4427183619   -1.5694122055
  3         -5.4326289545   -1.3865748334    4.4195613881   -1.5634604620
  4         -5.4368073263   -1.3933479911    4.4127833993   -1.5619680687
  5         -5.4388652800   -1.3969668505    4.4091714945   -1.5612108736
  6         -5.4399077146   -1.3988848872    4.4072644158   -1.5608235486
  7         -5.4404434041   -1.3998980658    4.4062615348   -1.5606243010
  8         -5.4407208401   -1.4004325328    4.4057350952   -1.5605214507
  9         -5.4408651553   -1.4007143559    4.4054589454   -1.5604682523
 10         -5.4409404127   -1.4008629743    4.4053141024   -1.5604407028
 11         -5.4409797152   -1.4009413770    4.4052381126   -1.5604264250
 12         -5.4410002582   -1.4009827603    4.4051982277   -1.5604190215
 13         -5.4410110012   -1.4010046176    4.4051772812   -1.5604151811
 14         -5.4410166211   -1.4010161701    4.4051662735   -1.5604131883
 15         -5.4410195614   -1.4010222805    4.4051604845   -1.5604121539
 16         -5.4410211001   -1.4010255150    4.4051574379   -1.5604116169
 17         -5.4410219052   -1.4010272285    4.4051558332   -1.5604113379
 18         -5.4410223266   -1.4010281369    4.4051549874   -1.5604111930
 19         -5.4410225472   -1.4010286190    4.4051545411   -1.5604111177
 20         -5.4410226626   -1.4010288749    4.4051543055   -1.5604110786
 21         -5.4410227231   -1.4010290110    4.4051541810   -1.5604110582
Atom SCF converged after  21 iterations to a total energy of     -5.44102272

Determining parallel strategy ...
... using space-filling curve
... NGWF load balancing: max     64;  min     64;  average     64
... Projector load balancing: max    128;  min    128;  average    128
... done
Calculating Ewald energy ...
              Ewald: real-space energy =    9482.660030
        Ewald: reciprocal-space energy =       0.258173
         Ewald: (sum_charge)**2 Energy =   11001.050404
         Ewald: (sum_charge**2) Energy =     869.709398
                          Ewald Energy =   -2387.841599
Basis initialisation ...... NGWF spheres initialised
... Projector spheres initialised
... NGWF tight boxes initialised
... Projector tight boxes initialised
... Tight-boxes gathered
... NGWF basis size (local,global):     692724  27900064
... PAW projector initialisation
... done

============================= Charge Augmentation ==============================
                           Aug box size:   11 x  11 x  11
================================================================================

========================== Sparse matrix information ===========================
                        Overlap matrix filling:  40.94%
                        Density kernel filling: 100.00%
              NGWF-Proj overlap matrix filling:  12.19%
                    Aug Overlap matrix filling:  47.03%
                    Hamiltonian matrix filling:  47.03%
                  NGWF diagonal matrix filling:   0.16%
                             KS matrix filling: 100.00% 
                           KSKS matrix filling: 100.00% 
================================================================================

Sparse matrix initialisation ... done
NGWF initialisation ...... done
============ Calculation of NGWF S^-1 using Hotelling algorithm ================ 
         Iteration  |  Frobenius norm and Maximum abs value    (of I-S*S_n^-1)   
               1       0.48988650E+02     0.97508590E+00
               2       0.47712718E+02     0.95201568E+00
               3       0.45813240E+02     0.91053357E+00
               4       0.43371201E+02     0.84177525E+00
               5       0.40464043E+02     0.74012805E+00
               6       0.37113100E+02     0.67485150E+00
               7       0.33659978E+02     0.62809380E+00
               8       0.30363684E+02     0.58878645E+00
               9       0.26789949E+02     0.54446115E+00
              10       0.22236945E+02     0.47400483E+00
              11       0.16314999E+02     0.36263928E+00
              12       0.95587547E+01     0.21750152E+00
              13       0.37682378E+01     0.83703695E-01
              14       0.69997297E+00     0.14269187E-01
              15       0.28603575E-01     0.50846749E-03
              16       0.60917573E-04     0.82455716E-06
              17       0.41778501E-09     0.34560133E-11
              18       0.70877972E-13     0.33306691E-14
================================================================================
Calculating core density ...
================================= Core Density =================================
               Core den box size:   21 x  21 x  21
================================================================================
 ... done
Up spin density kernel initialisation ...... done

Writing density kernel to file "3.6491432_GO_manual_4x64graphite.dkn" ... done

>>> Optimising kernel for current NGWFs:

--------------------------- Ensemble-DFT optimisation --------------------------
Running ScaLAPACK on   40 processor(s).

--------------------------------------------------------------------------------
  Iter                              Commutator    Free_energy(A=E-TS)     DeltaA
#    0                          0.000029628863   -3650.28777343754882  -3.65E+03

Step                       =       0.381966011250
Energy                     =   -3650.287743860137
Entropy (-TS)              =      -0.000029577597
Free energy (A=E-TS)       =   -3650.287773437549
Est. 0K Energy 0.5*(E+A)   =   -3650.287758648843
Residual Non-orthogonality =       0.000000000000
Residual N_electrons       =       0.000000000185

Spin          Integrated_Ne            Fermi_level     Delta_Fermi_level
   1      2559.999999998933         0.173716278537              1.74E-01

                           Spin 1          
     Orb      H-eigenvalues     Occupancies
       1 |    -0.5480933806    1.0000000000 | 
                          ------
    1276 |     0.1391656052    0.9999817302 | 
    1277 |     0.1397671674    0.9999779082 | 
    1278 |     0.1397922176    0.9999777328 | 
    1279 |     0.1399833696    0.9999763473 | 
    1280 |     0.1406092608    0.9999711788 | 
                 - Gap at zero temperature -
    1281 |     0.2093321154    0.0000130515 | 
    1282 |     0.2093512678    0.0000129728 | 
    1283 |     0.2093539477    0.0000129619 | 
    1284 |     0.2095184824    0.0000123056 | 
    1285 |     0.2095398099    0.0000122230 | 
                          ------
    2560 |     1.0062156234    0.0000000000 | 

                       |  Abs_value |  Threshold | Converged
     Delta_Free_energy |   3.65E+03 |   1.00E-06 |        No
     Delta_Energy      |   3.65E+03 |   1.00E-04 |        No
     Delta_Entropy     |   2.96E-05 |   1.00E-04 |       Yes
     Commutator        |   2.96E-05 |   1.00E-05 |        No
     Delta_Fermi_level |   1.74E-01 |   1.00E-03 |        No

  Line search of the free energy minimum:
  Step_type        Step             Free_energy   Predicted_free_energy
.   Initial    0.000000    -3650.28777343754882
.    Trial1    0.381966    -3650.28874136882587
.    Trial2    0.618034    -3650.28881942565567
. Quadratic    0.546372    -3650.28883765635828    -3650.28883773446023

--------------------------------------------------------------------------------
  Iter                              Commutator    Free_energy(A=E-TS)     DeltaA
#    1                          0.000017431063   -3650.28883765635828  -1.06E-03

Step                       =       0.546372266832
Energy                     =   -3650.288808066220
Entropy (-TS)              =      -0.000029590220
Free energy (A=E-TS)       =   -3650.288837656358
Est. 0K Energy 0.5*(E+A)   =   -3650.288822861289
Residual Non-orthogonality =       0.000000000000
Residual N_electrons       =       0.000000000081

Spin          Integrated_Ne            Fermi_level     Delta_Fermi_level
   1      2559.999999999531         0.172787105463             -9.29E-04

                           Spin 1          
     Orb      H-eigenvalues     Occupancies
       1 |    -0.5503968265    1.0000000000 | 
                          ------
    1276 |     0.1382980844    0.9999813710 | 
    1277 |     0.1387650889    0.9999784110 | 
    1278 |     0.1387808472    0.9999783033 | 
    1279 |     0.1391140167    0.9999758963 | 
    1280 |     0.1395959309    0.9999719346 | 
                 - Gap at zero temperature -
    1281 |     0.2083547768    0.0000132516 | 
    1282 |     0.2083703598    0.0000131865 | 
    1283 |     0.2083745475    0.0000131691 | 
    1284 |     0.2085351990    0.0000125177 | 
    1285 |     0.2085537606    0.0000124445 | 
                          ------
    2560 |     1.0043093661    0.0000000000 | 

                       |  Abs_value |  Threshold | Converged
     Delta_Free_energy |   1.06E-03 |   1.00E-06 |        No
     Delta_Energy      |   1.06E-03 |   1.00E-04 |        No
     Delta_Entropy     |   1.26E-08 |   1.00E-04 |       Yes
     Commutator        |   1.74E-05 |   1.00E-05 |        No
     Delta_Fermi_level |   9.29E-04 |   1.00E-03 |       Yes

  Line search of the free energy minimum:
  Step_type        Step             Free_energy   Predicted_free_energy
.   Initial    0.000000    -3650.28883765635828
.    Trial1    0.546372    -3650.28876494267161
.    Trial2    0.208696    -3650.28910686566587
. Quadratic    0.257396    -3650.28911683586512    -3650.28911686074707

--------------------------------------------------------------------------------
  Iter                              Commutator    Free_energy(A=E-TS)     DeltaA
#    2                          0.000009693108   -3650.28911683586512  -2.79E-04

Step                       =       0.257396224460
Energy                     =   -3650.289087256259
Entropy (-TS)              =      -0.000029579851
Free energy (A=E-TS)       =   -3650.289116835865
Est. 0K Energy 0.5*(E+A)   =   -3650.289102046062
Residual Non-orthogonality =       0.000000000000
Residual N_electrons       =       0.000000000245

Spin          Integrated_Ne            Fermi_level     Delta_Fermi_level
   1      2559.999999998580         0.172587906536             -1.99E-04

                           Spin 1          
     Orb      H-eigenvalues     Occupancies
       1 |    -0.5508922391    1.0000000000 | 
                          ------
    1276 |     0.1380696653    0.9999815421 | 
    1277 |     0.1385810257    0.9999783075 | 
    1278 |     0.1385962560    0.9999782030 | 
    1279 |     0.1388829117    0.9999761379 | 
    1280 |     0.1394086884    0.9999718284 | 
                 - Gap at zero temperature -
    1281 |     0.2081744370    0.0000131729 | 
    1282 |     0.2081898900    0.0000131087 | 
    1283 |     0.2081925083    0.0000130979 | 
    1284 |     0.2083597340    0.0000124242 | 
    1285 |     0.2083757673    0.0000123615 | 
                          ------
    2560 |     1.0038963020    0.0000000000 | 

                       |  Abs_value |  Threshold | Converged
     Delta_Free_energy |   2.79E-04 |   1.00E-06 |        No
     Delta_Energy      |   2.79E-04 |   1.00E-04 |        No
     Delta_Entropy     |   1.04E-08 |   1.00E-04 |       Yes
     Commutator        |   9.69E-06 |   1.00E-05 |       Yes
     Delta_Fermi_level |   1.99E-04 |   1.00E-03 |       Yes

  Line search of the free energy minimum:
  Step_type        Step             Free_energy   Predicted_free_energy
.   Initial    0.000000    -3650.28911683586512
.    Trial1    0.257396    -3650.28919965092155
.    Trial2    0.541046    -3650.28919817759061
. Quadratic    0.394923    -3650.28921107408996    -3650.28921107978249

--------------------------------------------------------------------------------
  Iter                              Commutator    Free_energy(A=E-TS)     DeltaA
#    3                          0.000006733110   -3650.28921107408996  -9.42E-05

Step                       =       0.394922989519
Energy                     =   -3650.289181508475
Entropy (-TS)              =      -0.000029565691
Free energy (A=E-TS)       =   -3650.289211074090
Est. 0K Energy 0.5*(E+A)   =   -3650.289196291283
Residual Non-orthogonality =       0.000000000000
Residual N_electrons       =       0.000000000076

Spin          Integrated_Ne            Fermi_level     Delta_Fermi_level
   1      2559.999999999559         0.172359684200             -2.28E-04

                           Spin 1          
     Orb      H-eigenvalues     Occupancies
       1 |    -0.5514481593    1.0000000000 | 
                          ------
    1276 |     0.1378259202    0.9999816323 | 
    1277 |     0.1383551746    0.9999782913 | 
    1278 |     0.1383700143    0.9999781893 | 
    1279 |     0.1386366595    0.9999762734 | 
    1280 |     0.1391799649    0.9999718329 | 
                 - Gap at zero temperature -
    1281 |     0.2079555672    0.0000131340 | 
    1282 |     0.2079709184    0.0000130705 | 
    1283 |     0.2079723491    0.0000130646 | 
    1284 |     0.2081444760    0.0000123735 | 
    1285 |     0.2081574541    0.0000123229 | 
                          ------
    2560 |     1.0034446473    0.0000000000 | 

                       |  Abs_value |  Threshold | Converged
     Delta_Free_energy |   9.42E-05 |   1.00E-06 |        No
     Delta_Energy      |   9.43E-05 |   1.00E-04 |       Yes
     Delta_Entropy     |   1.42E-08 |   1.00E-04 |       Yes
     Commutator        |   6.73E-06 |   1.00E-05 |       Yes
     Delta_Fermi_level |   2.28E-04 |   1.00E-03 |       Yes

  Line search of the free energy minimum:
  Step_type        Step             Free_energy   Predicted_free_energy
.   Initial    0.000000    -3650.28921107408996
.    Trial1    0.394923    -3650.28924063865179
.    Trial2    0.626042    -3650.28917177838139
. Quadratic    0.260318    -3650.28925143317701    -3650.28925142810931

--------------------------------------------------------------------------------
  Iter                              Commutator    Free_energy(A=E-TS)     DeltaA
#    4                          0.000004263042   -3650.28925143317701  -4.04E-05

Step                       =       0.260318113593
Energy                     =   -3650.289221873420
Entropy (-TS)              =      -0.000029560126
Free energy (A=E-TS)       =   -3650.289251433177
[...]
 C   275 -- C   555       -0.10      5.37000
 C   274 -- C   554       -0.10      5.37000
 C   273 -- C   553       -0.10      5.37000
 C   272 -- C   552       -0.10      5.37000
 C   271 -- C   551       -0.10      5.37000
 C   270 -- C   550       -0.10      5.37000
 C   269 -- C   549       -0.10      5.37000
 C   268 -- C   548       -0.10      5.37000
 C   267 -- C   547       -0.10      5.37000
 C   266 -- C   546       -0.10      5.37000
 C   130 -- C   465       -0.10      5.37000
 C   129 -- C   464       -0.10      5.37000
 C   128 -- C   463       -0.10      5.37000
 C   127 -- C   462       -0.10      5.37000
 C   126 -- C   461       -0.10      5.37000
 C   240 -- C   525       -0.10      5.37000
 C   239 -- C   524       -0.10      5.37000
 C   238 -- C   523       -0.10      5.37000
 C   237 -- C   522       -0.10      5.37000
 C   236 -- C   521       -0.10      5.37000
 C    23 -- C   478       -0.09      5.37202
 C    49 -- C   469       -0.09      5.37202
 C    48 -- C   468       -0.09      5.37202
 C    47 -- C   467       -0.09      5.37202
 C    22 -- C   477       -0.09      5.37202
 C    46 -- C   466       -0.09      5.37202
 C    21 -- C   476       -0.09      5.37202
 C    25 -- C   480       -0.09      5.37202
 C    24 -- C   479       -0.09      5.37202
 C    50 -- C   470       -0.09      5.37202
 C    24 -- C   449       -0.09      5.37202
 C     6 -- C   416       -0.09      5.37202
 C    23 -- C   448       -0.09      5.37202
 C    22 -- C   447       -0.09      5.37202
 C    10 -- C   470       -0.09      5.37202
 C     5 -- C   450       -0.09      5.37202
 C    21 -- C   446       -0.09      5.37202
 C    10 -- C   420       -0.09      5.37202
 C     9 -- C   469       -0.09      5.37202
 C     9 -- C   419       -0.09      5.37202
 C     8 -- C   468       -0.09      5.37202
 C     4 -- C   449       -0.09      5.37202
 C     8 -- C   418       -0.09      5.37202
 C   285 -- C   580       -0.09      5.37202
 C   284 -- C   579       -0.09      5.37202
 C   283 -- C   578       -0.09      5.37202
 C   282 -- C   577       -0.09      5.37202
 C   281 -- C   576       -0.09      5.37202
 C     2 -- C   447       -0.09      5.37202
 C     7 -- C   467       -0.09      5.37202
 C   260 -- C   605       -0.09      5.37202
 C   259 -- C   604       -0.09      5.37202
 C   258 -- C   603       -0.09      5.37202
 C   257 -- C   602       -0.09      5.37202
 C   256 -- C   601       -0.09      5.37202
 C     7 -- C   417       -0.09      5.37202
 C     1 -- C   446       -0.09      5.37202
 C     6 -- C   466       -0.09      5.37202
 C    25 -- C   450       -0.09      5.37202
 C     3 -- C   448       -0.09      5.37202
 C   219 -- C   569       -0.09      5.37202
 C   218 -- C   568       -0.09      5.37202
 C   217 -- C   567       -0.09      5.37202
 C   216 -- C   566       -0.09      5.37202
 C   250 -- C   540       -0.09      5.37202
 C   249 -- C   539       -0.09      5.37202
 C   248 -- C   538       -0.09      5.37202
 C   247 -- C   537       -0.09      5.37202
 C   246 -- C   536       -0.09      5.37202
 C   220 -- C   570       -0.09      5.37202
 C   205 -- C   550       -0.09      5.37202
 C   204 -- C   549       -0.09      5.37202
 C   203 -- C   548       -0.09      5.37202
 C   202 -- C   547       -0.09      5.37202
 C   201 -- C   546       -0.09      5.37202
 C    95 -- C   365       -0.10      5.37202
 C    94 -- C   364       -0.10      5.37202
 C    93 -- C   363       -0.10      5.37202
 C    92 -- C   362       -0.09      5.37202
 C    91 -- C   361       -0.10      5.37202
 C    65 -- C   395       -0.10      5.37202
 C    64 -- C   394       -0.10      5.37202
 C    63 -- C   393       -0.10      5.37202
 C    30 -- C   355       -0.10      5.37202
 C    62 -- C   392       -0.09      5.37202
 C    61 -- C   391       -0.10      5.37202
 C    29 -- C   354       -0.10      5.37202
 C   260 -- C   550       -0.09      5.37202
 C   259 -- C   549       -0.09      5.37202
 C    28 -- C   353       -0.10      5.37202
 C   258 -- C   548       -0.09      5.37202
 C   257 -- C   547       -0.09      5.37202
 C   256 -- C   546       -0.09      5.37202
 C    27 -- C   352       -0.10      5.37202
 C    26 -- C   351       -0.10      5.37202
 C    55 -- C   335       -0.10      5.37202
 C    54 -- C   334       -0.09      5.37202
 C    53 -- C   333       -0.09      5.37202
 C   230 -- C   580       -0.09      5.37202
 C   230 -- C   525       -0.09      5.37202
 C   229 -- C   579       -0.09      5.37202
 C   229 -- C   524       -0.09      5.37202
 C   228 -- C   578       -0.09      5.37202
 C    52 -- C   332       -0.09      5.37202
 C   228 -- C   523       -0.09      5.37202
 C   227 -- C   577       -0.09      5.37202
 C   227 -- C   522       -0.09      5.37202
 C   226 -- C   576       -0.09      5.37202
 C   226 -- C   521       -0.09      5.37202
 C    51 -- C   331       -0.09      5.37202
 C   220 -- C   515       -0.09      5.37202
 C   219 -- C   514       -0.09      5.37202
 C   218 -- C   513       -0.09      5.37202
 C   217 -- C   512       -0.09      5.37202
 C   216 -- C   511       -0.09      5.37202
 C   195 -- C   540       -0.09      5.37202
 C   195 -- C   500       -0.09      5.37202
 C   194 -- C   539       -0.09      5.37202
 C   194 -- C   499       -0.09      5.37202
 C   193 -- C   538       -0.09      5.37202
 C   193 -- C   498       -0.09      5.37202
 C   192 -- C   537       -0.09      5.37202
 C   192 -- C   497       -0.09      5.37202
 C   191 -- C   536       -0.09      5.37202
 C   191 -- C   496       -0.09      5.37202
 C   180 -- C   515       -0.09      5.37202
 C   179 -- C   514       -0.09      5.37202
 C   178 -- C   513       -0.09      5.37202
 C   177 -- C   512       -0.09      5.37202
 C   176 -- C   511       -0.09      5.37202
 C   150 -- C   440       -0.09      5.37202
 C   149 -- C   439       -0.09      5.37202
 C   148 -- C   438       -0.09      5.37202
 C   147 -- C   437       -0.09      5.37202
 C   146 -- C   436       -0.09      5.37202
 C   135 -- C   460       -0.09      5.37202
 C   134 -- C   459       -0.09      5.37202
 C   133 -- C   458       -0.09      5.37202
 C   132 -- C   457       -0.09      5.37202
 C   131 -- C   456       -0.09      5.37202
 C    11 -- C   331       -0.09      5.37202
 C    95 -- C   425       -0.09      5.37202
 C    94 -- C   424       -0.09      5.37202
 C    93 -- C   423       -0.09      5.37202
 C    92 -- C   422       -0.09      5.37202
 C    91 -- C   421       -0.09      5.37202
 C    85 -- C   355       -0.09      5.37202
 C    40 -- C   365       -0.09      5.37202
 C    84 -- C   354       -0.09      5.37202
 C    83 -- C   353       -0.09      5.37202
 C    82 -- C   352       -0.09      5.37202
 C    39 -- C   364       -0.09      5.37202
 C    81 -- C   351       -0.09      5.37202
 C    38 -- C   363       -0.09      5.37202
 C    37 -- C   362       -0.09      5.37202
 C    36 -- C   361       -0.09      5.37202
 C    15 -- C   335       -0.09      5.37202
 C    65 -- C   345       -0.09      5.37202
 C    64 -- C   344       -0.09      5.37202
 C    63 -- C   343       -0.09      5.37202
 C    30 -- C   325       -0.09      5.37202
 C    62 -- C   342       -0.09      5.37202
 C    14 -- C   334       -0.09      5.37202
 C    61 -- C   341       -0.09      5.37202
 C    29 -- C   324       -0.09      5.37202
 C    28 -- C   323       -0.09      5.37202
 C    13 -- C   333       -0.09      5.37202
 C    27 -- C   322       -0.09      5.37202
 C   120 -- C   395       -0.09      5.37202
 C    55 -- C   385       -0.09      5.37202
 C   119 -- C   394       -0.09      5.37202
 C   118 -- C   393       -0.09      5.37202
 C   117 -- C   392       -0.09      5.37202
 C    54 -- C   384       -0.09      5.37202
 C    26 -- C   321       -0.09      5.37202
 C   116 -- C   391       -0.09      5.37202
 C    53 -- C   383       -0.09      5.37202
 C    12 -- C   332       -0.09      5.37202
 C    52 -- C   382       -0.09      5.37202
 C    51 -- C   381       -0.09      5.37202
 C   106 -- C   436       -0.09      5.37202
 C   106 -- C   376       -0.09      5.37202
 C    80 -- C   410       -0.09      5.37202
 C    79 -- C   409       -0.09      5.37202
 C    78 -- C   408       -0.09      5.37202
 C    77 -- C   407       -0.09      5.37202
 C    76 -- C   406       -0.09      5.37202
 C   135 -- C   410       -0.09      5.37202
 C   134 -- C   409       -0.09      5.37202
 C   133 -- C   408       -0.09      5.37202
 C   132 -- C   407       -0.09      5.37202
 C   131 -- C   406       -0.09      5.37202
 C   110 -- C   440       -0.09      5.37202
 C   110 -- C   380       -0.09      5.37202
 C   109 -- C   439       -0.09      5.37202
 C   109 -- C   379       -0.09      5.37202
 C   108 -- C   438       -0.09      5.37202
 C   108 -- C   378       -0.09      5.37202
 C   107 -- C   437       -0.09      5.37202
 C   107 -- C   377       -0.09      5.37202
 C   215 -- C   635       -0.10      5.38000
 C   214 -- C   634       -0.10      5.38000
 C   213 -- C   633       -0.10      5.38000
 C   212 -- C   632       -0.10      5.38000
 C   211 -- C   631       -0.10      5.38000
 C   190 -- C   620       -0.10      5.38000
 C   189 -- C   619       -0.10      5.38000
 C   188 -- C   618       -0.10      5.38000
 C   187 -- C   617       -0.10      5.38000
 C   186 -- C   616       -0.10      5.38000
 C   175 -- C   595       -0.10      5.38000
 C   174 -- C   594       -0.10      5.38000
 C   173 -- C   593       -0.10      5.38000
 C   172 -- C   592       -0.10      5.38000
 C   171 -- C   591       -0.10      5.38000
 C   245 -- C   640       -0.10      5.38000
 C   244 -- C   639       -0.10      5.38000
 C   243 -- C   638       -0.10      5.38000
 C   242 -- C   637       -0.10      5.38000
 C   241 -- C   636       -0.10      5.38000
==================================================


=================== Orbital energy and occupancy information ===================

      Total number of orbitals:    2560
        Occupancy sum (kernel):    1280.000000000
   Occupancy sum (eigenvalues):    1280.000000000
                 HOMO-LUMO gap:       0.065503476 Eh
                 Mid-gap level:       0.226898699 Eh

                        Orbital | Energy (Eh) | Occupancy
                            1    -0.493747595   1.0000000
                        .......   ...........   .........
                         1271     0.189496608   0.9999885
                         1272     0.189534986   0.9999884
                         1273     0.189968128   0.9999867
                         1274     0.190006479   0.9999865
                         1275     0.192653088   0.9999689
                         1276     0.192751752   0.9999679
                         1277     0.193120674   0.9999639
                         1278     0.193219180   0.9999628
                         1279     0.193683550   0.9999569
                         1280     0.194146961   0.9999501
                        ....... -- gap at 0K -- .........
                         1281     0.259650437   0.0000208
                         1282     0.259651548   0.0000208
                         1283     0.259898969   0.0000192
                         1284     0.259899888   0.0000192
                         1285     0.260097797   0.0000181
                         1286     0.260180194   0.0000176
                         1287     0.260357555   0.0000166
                         1288     0.260400862   0.0000164
                         1289     0.260419389   0.0000163
                         1290     0.260439718   0.0000162
                        .......   ...........   .........
                         2560     1.117301513   0.0000000

================================================================================

===================== Writing canonical molecular orbitals =====================
| Orbital  Energy (eV)  Norm     |
| HOMO      5.28300763  1.000000 | Writing "3.6491432_GO_manual_4x64graphite_HOMO.cube" ... done
Writing "3.6491432_GO_manual_4x64graphite_HOMO.dx" ... done
| LUMO      7.06544789  1.000000 | Writing "3.6491432_GO_manual_4x64graphite_LUMO.cube" ... done
Writing "3.6491432_GO_manual_4x64graphite_LUMO.dx" ... done
================================================================================
 
===================== Density of States (DOS) calculation ======================
Writing "3.6491432_GO_manual_4x64graphite_DOS.txt" ...  done
================================================================================
 
Writing bands to file "3.6491432_GO_manual_4x64graphite.val_bands" ... done
 
================ Projected Density of States (pDOS) calculation ================
 
Constructing AM resolved functions  ...... done
Writing NGWF plot files in formats: CUBE DX ...  done
 
Performing overlap integrals ...  done
 
Computing pDOS weights ...  done
 
All bands spilling parameter =   3.22 %
Occupancy-weighted spilling parameter =   0.91 %
 
 => Outputting data for OptaDOS <=
 
Writing pDOS weights to file "3.6491432_GO_manual_4x64graphite.val_pdos_bin" ... done
 
Writing band gradients to file "3.6491432_GO_manual_4x64graphite.val_dome_bin" ... done
 
Writing Castep output cell file to "3.6491432_GO_manual_4x64graphite-out.cell" ... done
 
 => Computing Gaussian smeared pDOS <= 
Writing "3.6491432_GO_manual_4x64graphite_PDOS.txt" ...  done
 
 => Computing Occupancy-weighted Gaussian smeared pDOS <= 
Writing "3.6491432_GO_manual_4x64graphite_occ_PDOS.txt" ...  done
  => Band centres: 
 S band centre of group 1:  -13.794272 eV
 P band centre of group 1:   -6.673780 eV
  Band centres done. <=
  => Integrated number of electrons in each AM band: 
 S num electrons of group 1:  574.076722
 P num electrons of group 1: 1962.580154
  Integrated number of electrons done. <=
================================================================================

------------------------------ TIMING INFORMATION ------------------------------
AVERAGE TIME:    3356.939s on     40 node(s)                                    
TOTAL TIME:      3356.939s on     40 node(s)                                    
================= AVERAGE TIMINGS FROM ALL NODES (CUMULATIVE) ==================
|| TAG                                    #calls    cpu time   %total  Gflops ||
|| work_imbalance                       :     1        0.00s   0.000%  ------ ||
|| paw_tcore_hartree_on_grid            :     1        0.00s   0.000%  ------ ||
|| paw_tcore_density                    :     1        0.01s   0.000%  ------ ||
|| paw_sphere_density_on_grid           :     1        0.01s   0.000%  ------ ||
|| sparse_set_to_garbage                :   147        0.02s   0.001%  ------ ||
|| paw_dij_hartree                      :   307        0.04s   0.001%  ------ ||
|| pseudo_make_structure_factor         :     1        0.06s   0.002%  ------ ||
|| basis_extract_function_from_box      :  1664        0.07s   0.002%  ------ ||
|| paw_species_calc_proj_prec_mat       :     1        0.12s   0.004%  ------ ||
|| paw_dataset_init                     :     1        0.15s   0.004%  ------ ||
|| density_init_guess_real              :     1        0.17s   0.005%  ------ ||
|| ngwfs_initialise_from_radial         :     2        0.67s   0.020%  ------ ||
|| restart_kernel_write                 :    14        0.71s   0.021%  ------ ||
|| sparse_init                          :     1        0.96s   0.028%  ------ ||
|| dense_normal_eigensolve              :     1        1.16s   0.034%  ------ ||
|| hartree_on_grid                      :   231        1.36s   0.040%  ------ ||
|| projectors_init_fftbox_recip         :   131        2.51s   0.075%  ------ ||
|| ewald_calculate_energy               :     1        3.03s   0.090%  ------ ||
|| fourier_apply_box_pair               :  2464        4.07s   0.121% 560.935 ||
|| basis_copy_function_to_box           : 21888        4.74s   0.141%  ------ ||
|| augmentation_screen_dij              :   236        5.18s   0.154%  ------ ||
|| sw_init                              :     1        6.73s   0.201%  ------ ||
|| sparse_embed_hotelling_invert_embed  :    25        7.20s   0.214%  ------ ||
|| ngwf_gradient_coeffs                 :    13        9.20s   0.274%  ------ ||
|| sparse_trace                         :  2782       15.21s   0.453%  ------ ||
|| fourier_apply_cell_backward          :  7132       15.51s   0.462%  59.086 ||
|| cell_grid_extract_box_real           :  9228       15.68s   0.467%  ------ ||
|| fourier_apply_cell_forward           :  6671       16.65s   0.496%  51.487 ||
|| cell_grid_deposit_box_real           : 29744       20.49s   0.610%  ------ ||
|| paw_dij_xc                           :   307       22.24s   0.663%  ------ ||
|| aug_nonlocal_mat                     :   294       31.72s   0.945%  ------ ||
|| augmentation_density_on_grid         :   231       39.72s   1.183%  ------ ||
|| density_fftbox_deposit_to_cell       : 14784       41.99s   1.251%  ------ ||
|| hamiltonian_energy_components        :     3       46.33s   1.380%  ------ ||
|| function_ops_brappd_ketppd           :    52       52.25s   1.556%  ------ ||
|| eigenstates_pdos                     :     1       54.24s   1.616%  ------ ||
|| eigenstates_calculate                :     1       58.55s   1.744%  ------ ||
|| projectors_func_ovlp_box             :    26       58.56s   1.744%  ------ ||
|| xc_energy_potential                  :   230       71.44s   2.128%  ------ ||
|| nlxc_vdw_energy                      :   460       74.06s   2.206%  ------ ||
|| integrals_kinetic                    :    25       80.79s   2.407%  ------ ||
|| properties_calculate                 :     1      105.03s   3.129%  ------ ||
|| dense_eigensolve                     :   202      109.03s   3.248%  ------ ||
|| sparse_product                       :  2814      110.62s   3.295%  ------ ||
|| potential_apply_to_ngwf_batch        :   288      113.68s   3.387%  ------ ||
|| restart_ngwfs_tightbox_output        :    12      126.22s   3.760%  ------ ||
|| basis_dot_function_with_box          : 6.707M     184.15s   5.486%  ------ ||
|| fourier_apply_box                    : 68976      214.29s   6.384% 978.048 ||
|| edft_diag_ngwf_ham                   :   201      232.92s   6.938%  ------ ||
|| projectors_gradient_batch            :    52      235.29s   7.009%  ------ ||
|| integrals_locpot_mat_els_batch       :   288      241.21s   7.185%  ------ ||
|| density_fftbox_interpolate_multiply  : 14784      286.53s   8.535%  ------ ||
|| projectors_grad_precond_batch        :    52      325.04s   9.683%  ------ ||
|| integrals_locpot_dbl_grid            :    72      356.17s  10.610%  ------ ||
|| density_batch_interp_deposit         :   924      365.74s  10.895%  ------ ||
|| edft_apply_smearing_operator         :   201      446.56s  13.303%  ------ ||
|| basis_add_function_to_box            : 18.98M     501.89s  14.951%  ------ ||
|| ngwf_gradient_build_batch            :    52      599.92s  17.871%  ------ ||
|| density_batch_row_sums               :   924      693.75s  20.666%  ------ ||
|| ngwf_gradient_batch                  :    52      791.97s  23.592%  ------ ||
|| ngwf_gradient_lnv                    :    13      820.64s  24.446%  ------ ||
|| density_on_dbl_grid                  :   231     1072.06s  31.936%  ------ ||
|| hamiltonian_lhxc_calculate           :   226     1167.20s  34.770%  ------ ||
|| edft_calculate                       :    13     1954.43s  58.221%  ------ ||
|| ngwf_cg_optimise                     :     1     3231.75s  96.271%  ------ ||
|| total_time                           :     1     3356.94s 100.000%  ------ ||
================================================================================
Overhead of generating timer report: 
- 0 ms averaging over threads,
- 5 ms ensuring consistency across MPI ranks,
- 0 ms printing in order.

Job completed: 29-02-2020 14:09 (-0000)

