 +---------------------------------------------------------------+
 |                                                               |
 |        ####### #     # ####### ####### ####### ######         |
 |        #     # ##    # #          #    #       #     #        |
 |        #     # # #   # #          #    #       #     #        |
 |        #     # #  #  # #####      #    #####   ######         |
 |        #     # #   # # #          #    #       #              |
 |        #     # #    ## #          #    #       #              |
 |        ####### #     # #######    #    ####### #              |
 |                                                               |
 |        Linear-Scaling Ab Initio Total Energy Program          |
 |                                                               |
 |          Release for academic collaborators of ODG            |
 |                                             Version 5.3.2.12  |
 |                                                               |
 +---------------------------------------------------------------+
 |                                                               |
 |  Authors:                                                     |
 |  Jacek Dziedzic, Peter D. Haynes, Nicholas D. M. Hine,        |
 |  Arash. A. Mostofi, Mike C. Payne and Chris-Kriton Skylaris   |
 |                                                               |
 |  Contributors:                                                |
 |  J. Aarons, L. Andrinopoulos, P. W. Avraam, R. A. Bell,       |
 |  A. Bhandari, G. A. Bramley, R. J. Charlton, S. J. Clark,     |
 |  R. J. Clements, G. C. Constantinescu, F. Corsetti,           |
 |  N. Corsini, O. Dieguez, S. M. M. Dubois, K. K. B. Duff,      |
 |  J. M. Escartin, A. Greco, H. Helal, Q. O. Hill, L. P. Lee,   |
 |  J.-H. Li, E. B. Linscott, G. Moynihan, D. D. O`Regan,        |
 |  O. K. Okan, M. J. S. Phipps, C. J. Pickard,                  |
 |  J. C. A. Prentice, M. I. J. Probert, L. E. Ratcliff,         |
 |  M. Robinson, A. Ruiz Serrano, J. S. Spencer, E. W. Tait,     |
 |  G. Teobaldi, D. Turban, V. Vitale, K. A. Wilkinson,          |
 |  C. Weber, J. C. Womack, N. Yeung and T. J. Zuehlsdorff       |
 |                                                               |
 |                                   Copyright (c) 2004-2020     |
 |                                                               |
 |  Please cite:                                                 |
 |  "Introducing ONETEP: Linear-scaling density functional       |
 |   simulations on parallel computers".                         |
 |   C.-K. Skylaris, P. D. Haynes, A. A. Mostofi, M. C. Payne.   |
 |   J. Chem. Phys. 122 084119 (2005).                           |
 |                                                               |
 |          in all publications arising from your use of ONETEP. |
 |                                                               |
 +---------------------------------------------------------------+
 |                                                               |
 |   ONETEP is based on developments described in the following  |
 |   publications:                                               |
 |                                                               |
 |  "Nonorthogonal generalized Wannier function pseudopotential  |
 |   plane-wave method".                                         |
 |   C.-K. Skylaris, A. A. Mostofi, P. D. Haynes, O. Dieguez,    |
 |   M. C. Payne.                                                |
 |   Phys. Rev. B 66 035119 (2002).                              |
 |                                                               |
 |  "Preconditioned iterative minimization for linear-scaling    |
 |   electronic structure calculations".                         |
 |   A. A. Mostofi, P. D. Haynes, C.-K. Skylaris, M. C. Payne.   |
 |   J. Chem. Phys. 119(17), pp.8842-8848 (2003).                |
 |                                                               |
 |  "Total-energy calculations on a real space grid with         |
 |   localized functions and a plane-wave basis".                |
 |   A. A. Mostofi, C.-K. Skylaris, P. D. Haynes, M. C. Payne.   |
 |   Comput. Phys. Commun. 147, pp.788-802 (2002).               |
 |                                                               |
 |  "Accurate kinetic energy evaluation in electronic structure  |
 |   calculations with localized functions on real space grids"  |
 |   C.-K. Skylaris, A. A. Mostofi, P. D. Haynes, C. J. Pickard, |
 |   M. C. Payne.                                                |
 |   Comput. Phys. Commun. 140, pp.315-322 (2001).               |
 |                                                               |
 |  "Accurate ionic forces and geometry optimization in linear-  |
 |   scaling density-functional theory with local orbitals"      |
 |   N. D. M. Hine, M. Robinson, P. D. Haynes, C.-K. Skylaris,   |
 |   M. C. Payne, and A. A. Mostofi.                             |
 |   Phys. Rev. B 83 195102 (2011).                              |
 |                                                               |
 +---------------------------------------------------------------+

Job started: 29-02-2020 13:09 (-0000)
 
Reading parameters from file "3.756468_GO_manual_4x64graphite.dat" ...

WARNING: "cutoff_energy" not specified, but "psinc_spacing" specified.
         Using the latter to set the KE cutoff energy to  732.32021eV,
         thus *overriding* the default.

... done

If your calculation crashes here, before "Checking processes and threads..."
is displayed, then your stack size is insufficient.
If so, use "ulimit -s unlimited" at runtime.
You can disable this check with "check_stack_size F".

Checking processes and threads...
   Determining the default number of threads...
      No default threads set at compilation time: defaulting to 1.
      OpenMP library call suggests 4 threads.
      Hybrid MPI-OpenMP compilation detected.
      Number of MPI processes > 1.
      OMP_NUM_THREADS environment variable present and
      its value matches the one obtained from the OpenMP library call.
      Using this value as default.
      Default threads: 4
      Default applies to threads_max and threads_num_fftboxes.
      Settings in the input file override this default.
   ... done

   Running with 40 MPI processes.
   There are 10 MPI processes running on the same node as the root process.
   Each MPI process is using: 
               1 threads for simulation cell FFTs.
               1 threads for parallel FFT box operations.
               4 threads for loops over batched FFT box operations.
               4 threads in other parallel regions.
... done

Basic input checks...
Resetting ngwf_cg_rotate to TRUE for EDFT calculations
... done

Reading geometry and species blocks from file "3.756468_GO_manual_4x64graphite.dat" ...
    
  PSINC grid spacing along a1 set to   0.511215680000a0 from input file.
  PSINC grid spacing along a2 set to   0.531284090000a0 from input file.
  PSINC grid spacing along a3 set to   0.507050730000a0 from input file.
  Number of PPD points along a3 set to 1.  This is 
  the default value, it may have been provided also in the input file.
... done
 Writing xyz coordinates to file "3.756468_GO_manual_4x64graphite.xyz" ... done


--------------------------------------------------------------------------------
---------------------------------- INPUT FILE ----------------------------------
--------------------------------------------------------------------------------

task : singlepoint                                                              
do_properties : true                                                            
dx_format T                                                                     
edft T                                                                          
output_detail VERBOSE                                                           
write_xyz T                                                                     
xc_functional VV10                                                              
PSINC_SPACING 0.51121568 0.53128409 0.50705073                                  
paw T                                                                           
pdos_max_l = 2                                                                  
dos_smear  0.1 eV                                                               
popn_calculate T                                                                
PDOS_PSEUDOATOMIC T                                                             
PDOS_REDUCE_SWS F                                                               
PDOS_CONSTRUCT_BASIS F                                                          
PDOS_LOWDIN T                                                                   
PDOS_ORTH_ATOM_BLOCKS F                                                         
PDOS_LCAO_OPTIMIZE F                                                            
pdos_optados_output T                                                           
homo_plot 0                                                                     
lumo_plot 0                                                                     
homo_dens_plot -1                                                               
lumo_dens_plot -1                                                               
%BLOCK SPECIES                                                                  
C C 6 4 9.0                                                                     
%ENDBLOCK SPECIES                                                               
%BLOCK SPECIES_POT                                                              
C "~/pp/paw/c_pbe_abinit.paw"                                                   
%ENDBLOCK SPECIES_POT                                                           
%BLOCK SPECIES_ATOMIC_SET                                                       
C "SOLVE conf=2s2 2p2"                                                          
%ENDBLOCK SPECIES_ATOMIC_SET                                                    
%BLOCK LATTICE_CART                                                             
32.21  0.00  0.00                                                               
0.00 18.59  0.00                                                                
0.00  0.00 70.99                                                                
%ENDBLOCK LATTICE_CART                                                          
%BLOCK POSITIONS_ABS                                                            
C  0.00  0.00  3.55                                                             
C  0.00  0.00 17.75                                                             
C  0.00  0.00 31.94                                                             
C  0.00  0.00 46.14                                                             
C  0.00  0.00 60.34                                                             
C  0.00  4.65  3.55                                                             
C  0.00  4.65 17.75                                                             
C  0.00  4.65 31.94                                                             
C  0.00  4.65 46.14                                                             
C  0.00  4.65 60.34                                                             
C  4.03  2.32  3.55                                                             
C  4.03  2.32 17.75                                                             
C  4.03  2.32 31.94                                                             
C  4.03  2.32 46.14                                                             
C  4.03  2.32 60.34                                                             
C  8.05  0.00  3.55                                                             
C  8.05  0.00 17.75                                                             
C  8.05  0.00 31.94                                                             
C  8.05  0.00 46.14                                                             
C  8.05  0.00 60.34                                                             
C  0.00  9.30  3.55                                                             
C  0.00  9.30 17.75                                                             
C  0.00  9.30 31.94                                                             
C  0.00  9.30 46.14                                                             
C  0.00  9.30 60.34                                                             
C  4.03  6.97  3.55                                                             
C  4.03  6.97 17.75                                                             
C  4.03  6.97 31.94                                                             
C  4.03  6.97 46.14                                                             
C  4.03  6.97 60.34                                                             
C  8.05  4.65  3.55                                                             
C  8.05  4.65 17.75                                                             
C  8.05  4.65 31.94                                                             
C  8.05  4.65 46.14                                                             
C  8.05  4.65 60.34                                                             
C 12.08  2.32  3.55                                                             
C 12.08  2.32 17.75                                                             
C 12.08  2.32 31.94                                                             
C 12.08  2.32 46.14                                                             
C 12.08  2.32 60.34                                                             
C 16.10  0.00  3.55                                                             
C 16.10  0.00 17.75                                                             
C 16.10  0.00 31.94                                                             
C 16.10  0.00 46.14                                                             
C 16.10  0.00 60.34                                                             
C  0.00 13.95  3.55                                                             
C  0.00 13.95 17.75                                                             
C  0.00 13.95 31.94                                                             
C  0.00 13.95 46.14                                                             
C  0.00 13.95 60.34                                                             
C  4.03 11.62  3.55                                                             
C  4.03 11.62 17.75                                                             
C  4.03 11.62 31.94                                                             
C  4.03 11.62 46.14                                                             
C  4.03 11.62 60.34                                                             
C  8.05  9.30  3.55                                                             
C  8.05  9.30 17.75                                                             
C  8.05  9.30 31.94                                                             
C  8.05  9.30 46.14                                                             
C  8.05  9.30 60.34                                                             
C 12.08  6.97  3.55                                                             
C 12.08  6.97 17.75                                                             
C 12.08  6.97 31.94                                                             
C 12.08  6.97 46.14                                                             
C 12.08  6.97 60.34                                                             
C 16.10  4.65  3.55                                                             
C 16.10  4.65 17.75                                                             
C 16.10  4.65 31.94                                                             
C 16.10  4.65 46.14                                                             
C 16.10  4.65 60.34                                                             
C 20.13  2.32  3.55                                                             
C 20.13  2.32 17.75                                                             
C 20.13  2.32 31.94                                                             
C 20.13  2.32 46.14                                                             
C 20.13  2.32 60.34                                                             
C 24.16  0.00  3.55                                                             
C 24.16  0.00 17.75                                                             
C 24.16  0.00 31.94                                                             
C 24.16  0.00 46.14                                                             
C 24.16  0.00 60.34                                                             
C  4.03 16.27  3.55                                                             
C  4.03 16.27 17.75                                                             
C  4.03 16.27 31.94                                                             
C  4.03 16.27 46.14                                                             
C  4.03 16.27 60.34                                                             
C  8.05 13.95  3.55                                                             
C  8.05 13.95 17.75                                                             
C  8.05 13.95 31.94                                                             
C  8.05 13.95 46.14                                                             
C  8.05 13.95 60.34                                                             
C 12.08 11.62  3.55                                                             
C 12.08 11.62 17.75                                                             
C 12.08 11.62 31.94                                                             
C 12.08 11.62 46.14                                                             
C 12.08 11.62 60.34                                                             
C 16.10  9.30  3.55                                                             
C 16.10  9.30 17.75                                                             
C 16.10  9.30 31.94                                                             
C 16.10  9.30 46.14                                                             
C 16.10  9.30 60.34                                                             
C 20.13  6.97  3.55                                                             
C 20.13  6.97 17.75                                                             
C 20.13  6.97 31.94                                                             
C 20.13  6.97 46.14                                                             
C 20.13  6.97 60.34                                                             
C 24.16  4.65  3.55                                                             
C 24.16  4.65 17.75                                                             
C 24.16  4.65 31.94                                                             
C 24.16  4.65 46.14                                                             
C 24.16  4.65 60.34                                                             
C 28.18  2.32  3.55                                                             
C 28.18  2.32 17.75                                                             
C 28.18  2.32 31.94                                                             
C 28.18  2.32 46.14                                                             
C 28.18  2.32 60.34                                                             
C 12.08 16.27  3.55                                                             
C 12.08 16.27 17.75                                                             
C 12.08 16.27 31.94                                                             
C 12.08 16.27 46.14                                                             
C 12.08 16.27 60.34                                                             
C 16.10 13.95  3.55                                                             
C 16.10 13.95 17.75                                                             
C 16.10 13.95 31.94                                                             
C 16.10 13.95 46.14                                                             
C 16.10 13.95 60.34                                                             
C 20.13 11.62  3.55                                                             
C 20.13 11.62 17.75                                                             
C 20.13 11.62 31.94                                                             
C 20.13 11.62 46.14                                                             
C 20.13 11.62 60.34                                                             
C 24.16  9.30  3.55                                                             
C 24.16  9.30 17.75                                                             
C 24.16  9.30 31.94                                                             
C 24.16  9.30 46.14                                                             
C 24.16  9.30 60.34                                                             
C 28.18  6.97  3.55                                                             
C 28.18  6.97 17.75                                                             
C 28.18  6.97 31.94                                                             
C 28.18  6.97 46.14                                                             
C 28.18  6.97 60.34                                                             
C 20.13 16.27  3.55                                                             
C 20.13 16.27 17.75                                                             
C 20.13 16.27 31.94                                                             
C 20.13 16.27 46.14                                                             
C 20.13 16.27 60.34                                                             
C 24.16 13.95  3.55                                                             
C 24.16 13.95 17.75                                                             
C 24.16 13.95 31.94                                                             
C 24.16 13.95 46.14                                                             
C 24.16 13.95 60.34                                                             
C 28.18 11.62  3.55                                                             
C 28.18 11.62 17.75                                                             
C 28.18 11.62 31.94                                                             
C 28.18 11.62 46.14                                                             
C 28.18 11.62 60.34                                                             
C 28.18 16.27  3.55                                                             
C 28.18 16.27 17.75                                                             
C 28.18 16.27 31.94                                                             
C 28.18 16.27 46.14                                                             
C 28.18 16.27 60.34                                                             
C  0.00  0.00 10.65                                                             
C  0.00  0.00 24.85                                                             
C  0.00  0.00 39.04                                                             
C  0.00  0.00 53.24                                                             
C  0.00  0.00 67.44                                                             
C  0.00  4.65 10.65                                                             
C  0.00  4.65 24.85                                                             
C  0.00  4.65 39.04                                                             
C  0.00  4.65 53.24                                                             
C  0.00  4.65 67.44                                                             
C  4.03  2.32 10.65                                                             
C  4.03  2.32 24.85                                                             
C  4.03  2.32 39.04                                                             
C  4.03  2.32 53.24                                                             
C  4.03  2.32 67.44                                                             
C  8.05  0.00 10.65                                                             
C  8.05  0.00 24.85                                                             
C  8.05  0.00 39.04                                                             
C  8.05  0.00 53.24                                                             
C  8.05  0.00 67.44                                                             
C  0.00  9.30 10.65                                                             
C  0.00  9.30 24.85                                                             
C  0.00  9.30 39.04                                                             
C  0.00  9.30 53.24                                                             
C  0.00  9.30 67.44                                                             
C  4.03  6.97 10.65                                                             
C  4.03  6.97 24.85                                                             
C  4.03  6.97 39.04                                                             
C  4.03  6.97 53.24                                                             
C  4.03  6.97 67.44                                                             
C  8.05  4.65 10.65                                                             
C  8.05  4.65 24.85                                                             
C  8.05  4.65 39.04                                                             
C  8.05  4.65 53.24                                                             
C  8.05  4.65 67.44                                                             
C 12.08  2.32 10.65                                                             
C 12.08  2.32 24.85                                                             
C 12.08  2.32 39.04                                                             
C 12.08  2.32 53.24                                                             
C 12.08  2.32 67.44                                                             
C 16.10  0.00 10.65                                                             
C 16.10  0.00 24.85                                                             
C 16.10  0.00 39.04                                                             
C 16.10  0.00 53.24                                                             
C 16.10  0.00 67.44                                                             
C  0.00 13.95 10.65                                                             
C  0.00 13.95 24.85                                                             
C  0.00 13.95 39.04                                                             
C  0.00 13.95 53.24                                                             
C  0.00 13.95 67.44                                                             
C  4.03 11.62 10.65                                                             
C  4.03 11.62 24.85                                                             
C  4.03 11.62 39.04                                                             
C  4.03 11.62 53.24                                                             
C  4.03 11.62 67.44                                                             
C  8.05  9.30 10.65                                                             
C  8.05  9.30 24.85                                                             
C  8.05  9.30 39.04                                                             
C  8.05  9.30 53.24                                                             
C  8.05  9.30 67.44                                                             
C 12.08  6.97 10.65                                                             
C 12.08  6.97 24.85                                                             
C 12.08  6.97 39.04                                                             
C 12.08  6.97 53.24                                                             
C 12.08  6.97 67.44                                                             
C 16.10  4.65 10.65                                                             
C 16.10  4.65 24.85                                                             
C 16.10  4.65 39.04                                                             
C 16.10  4.65 53.24                                                             
C 16.10  4.65 67.44                                                             
C 20.13  2.32 10.65                                                             
C 20.13  2.32 24.85                                                             
C 20.13  2.32 39.04                                                             
C 20.13  2.32 53.24                                                             
C 20.13  2.32 67.44                                                             
C 24.16  0.00 10.65                                                             
C 24.16  0.00 24.85                                                             
C 24.16  0.00 39.04                                                             
C 24.16  0.00 53.24                                                             
C 24.16  0.00 67.44                                                             
C  4.03 16.27 10.65                                                             
C  4.03 16.27 24.85                                                             
C  4.03 16.27 39.04                                                             
C  4.03 16.27 53.24                                                             
C  4.03 16.27 67.44                                                             
C  8.05 13.95 10.65                                                             
C  8.05 13.95 24.85                                                             
C  8.05 13.95 39.04                                                             
C  8.05 13.95 53.24                                                             
C  8.05 13.95 67.44                                                             
C 12.08 11.62 10.65                                                             
C 12.08 11.62 24.85                                                             
C 12.08 11.62 39.04                                                             
C 12.08 11.62 53.24                                                             
C 12.08 11.62 67.44                                                             
C 16.10  9.30 10.65                                                             
C 16.10  9.30 24.85                                                             
C 16.10  9.30 39.04                                                             
C 16.10  9.30 53.24                                                             
C 16.10  9.30 67.44                                                             
C 20.13  6.97 10.65                                                             
C 20.13  6.97 24.85                                                             
C 20.13  6.97 39.04                                                             
C 20.13  6.97 53.24                                                             
C 20.13  6.97 67.44                                                             
C 24.16  4.65 10.65                                                             
C 24.16  4.65 24.85                                                             
C 24.16  4.65 39.04                                                             
C 24.16  4.65 53.24                                                             
C 24.16  4.65 67.44                                                             
C 28.18  2.32 10.65                                                             
C 28.18  2.32 24.85                                                             
C 28.18  2.32 39.04                                                             
C 28.18  2.32 53.24                                                             
C 28.18  2.32 67.44                                                             
C 12.08 16.27 10.65                                                             
C 12.08 16.27 24.85                                                             
C 12.08 16.27 39.04                                                             
C 12.08 16.27 53.24                                                             
C 12.08 16.27 67.44                                                             
C 16.10 13.95 10.65                                                             
C 16.10 13.95 24.85                                                             
C 16.10 13.95 39.04                                                             
C 16.10 13.95 53.24                                                             
C 16.10 13.95 67.44                                                             
C 20.13 11.62 10.65                                                             
C 20.13 11.62 24.85                                                             
C 20.13 11.62 39.04                                                             
C 20.13 11.62 53.24                                                             
C 20.13 11.62 67.44                                                             
C 24.16  9.30 10.65                                                             
C 24.16  9.30 24.85                                                             
C 24.16  9.30 39.04                                                             
C 24.16  9.30 53.24                                                             
C 24.16  9.30 67.44                                                             
C 28.18  6.97 10.65                                                             
C 28.18  6.97 24.85                                                             
C 28.18  6.97 39.04                                                             
C 28.18  6.97 53.24                                                             
C 28.18  6.97 67.44                                                             
C 20.13 16.27 10.65                                                             
C 20.13 16.27 24.85                                                             
C 20.13 16.27 39.04                                                             
C 20.13 16.27 53.24                                                             
C 20.13 16.27 67.44                                                             
C 24.16 13.95 10.65                                                             
C 24.16 13.95 24.85                                                             
C 24.16 13.95 39.04                                                             
C 24.16 13.95 53.24                                                             
C 24.16 13.95 67.44                                                             
C 28.18 11.62 10.65                                                             
C 28.18 11.62 24.85                                                             
C 28.18 11.62 39.04                                                             
C 28.18 11.62 53.24                                                             
C 28.18 11.62 67.44                                                             
C 28.18 16.27 10.65                                                             
C 28.18 16.27 24.85                                                             
C 28.18 16.27 39.04                                                             
C 28.18 16.27 53.24                                                             
C 28.18 16.27 67.44                                                             
C  1.34  2.32  3.55                                                             
C  1.34  2.32 17.75                                                             
C  1.34  2.32 31.94                                                             
C  1.34  2.32 46.14                                                             
C  1.34  2.32 60.34                                                             
C  5.37  0.00  3.55                                                             
C  5.37  0.00 17.75                                                             
C  5.37  0.00 31.94                                                             
C  5.37  0.00 46.14                                                             
C  5.37  0.00 60.34                                                             
C  1.34  6.97  3.55                                                             
C  1.34  6.97 17.75                                                             
C  1.34  6.97 31.94                                                             
C  1.34  6.97 46.14                                                             
C  1.34  6.97 60.34                                                             
C  5.37  4.65  3.55                                                             
C  5.37  4.65 17.75                                                             
C  5.37  4.65 31.94                                                             
C  5.37  4.65 46.14                                                             
C  5.37  4.65 60.34                                                             
C  9.39  2.32  3.55                                                             
C  9.39  2.32 17.75                                                             
C  9.39  2.32 31.94                                                             
C  9.39  2.32 46.14                                                             
C  9.39  2.32 60.34                                                             
C 13.42  0.00  3.55                                                             
C 13.42  0.00 17.75                                                             
C 13.42  0.00 31.94                                                             
C 13.42  0.00 46.14                                                             
C 13.42  0.00 60.34                                                             
C  1.34 11.62  3.55                                                             
C  1.34 11.62 17.75                                                             
C  1.34 11.62 31.94                                                             
C  1.34 11.62 46.14                                                             
C  1.34 11.62 60.34                                                             
C  5.37  9.30  3.55                                                             
C  5.37  9.30 17.75                                                             
C  5.37  9.30 31.94                                                             
C  5.37  9.30 46.14                                                             
C  5.37  9.30 60.34                                                             
C  9.39  6.97  3.55                                                             
C  9.39  6.97 17.75                                                             
C  9.39  6.97 31.94                                                             
C  9.39  6.97 46.14                                                             
C  9.39  6.97 60.34                                                             
C 13.42  4.65  3.55                                                             
C 13.42  4.65 17.75                                                             
C 13.42  4.65 31.94                                                             
C 13.42  4.65 46.14                                                             
C 13.42  4.65 60.34                                                             
C 17.45  2.32  3.55                                                             
C 17.45  2.32 17.75                                                             
C 17.45  2.32 31.94                                                             
C 17.45  2.32 46.14                                                             
C 17.45  2.32 60.34                                                             
C 21.47  0.00  3.55                                                             
C 21.47  0.00 17.75                                                             
C 21.47  0.00 31.94                                                             
C 21.47  0.00 46.14                                                             
C 21.47  0.00 60.34                                                             
C  1.34 16.27  3.55                                                             
C  1.34 16.27 17.75                                                             
C  1.34 16.27 31.94                                                             
C  1.34 16.27 46.14                                                             
C  1.34 16.27 60.34                                                             
C  5.37 13.95  3.55                                                             
C  5.37 13.95 17.75                                                             
C  5.37 13.95 31.94                                                             
C  5.37 13.95 46.14                                                             
C  5.37 13.95 60.34                                                             
C  9.39 11.62  3.55                                                             
C  9.39 11.62 17.75                                                             
C  9.39 11.62 31.94                                                             
C  9.39 11.62 46.14                                                             
C  9.39 11.62 60.34                                                             
C 13.42  9.30  3.55                                                             
C 13.42  9.30 17.75                                                             
C 13.42  9.30 31.94                                                             
C 13.42  9.30 46.14                                                             
C 13.42  9.30 60.34                                                             
C 17.45  6.97  3.55                                                             
C 17.45  6.97 17.75                                                             
C 17.45  6.97 31.94                                                             
C 17.45  6.97 46.14                                                             
C 17.45  6.97 60.34                                                             
C 21.47  4.65  3.55                                                             
C 21.47  4.65 17.75                                                             
C 21.47  4.65 31.94                                                             
C 21.47  4.65 46.14                                                             
C 21.47  4.65 60.34                                                             
C 25.50  2.32  3.55                                                             
C 25.50  2.32 17.75                                                             
C 25.50  2.32 31.94                                                             
C 25.50  2.32 46.14                                                             
C 25.50  2.32 60.34                                                             
C 29.52  0.00  3.55                                                             
C 29.52  0.00 17.75                                                             
C 29.52  0.00 31.94                                                             
C 29.52  0.00 46.14                                                             
C 29.52  0.00 60.34                                                             
C  9.39 16.27  3.55                                                             
C  9.39 16.27 17.75                                                             
C  9.39 16.27 31.94                                                             
C  9.39 16.27 46.14                                                             
C  9.39 16.27 60.34                                                             
C 13.42 13.95  3.55                                                             
C 13.42 13.95 17.75                                                             
C 13.42 13.95 31.94                                                             
C 13.42 13.95 46.14                                                             
C 13.42 13.95 60.34                                                             
C 17.45 11.62  3.55                                                             
C 17.45 11.62 17.75                                                             
C 17.45 11.62 31.94                                                             
C 17.45 11.62 46.14                                                             
C 17.45 11.62 60.34                                                             
C 21.47  9.30  3.55                                                             
C 21.47  9.30 17.75                                                             
C 21.47  9.30 31.94                                                             
C 21.47  9.30 46.14                                                             
C 21.47  9.30 60.34                                                             
C 25.50  6.97  3.55                                                             
C 25.50  6.97 17.75                                                             
C 25.50  6.97 31.94                                                             
C 25.50  6.97 46.14                                                             
C 25.50  6.97 60.34                                                             
C 29.52  4.65  3.55                                                             
C 29.52  4.65 17.75                                                             
C 29.52  4.65 31.94                                                             
C 29.52  4.65 46.14                                                             
C 29.52  4.65 60.34                                                             
C 17.45 16.27  3.55                                                             
C 17.45 16.27 17.75                                                             
C 17.45 16.27 31.94                                                             
C 17.45 16.27 46.14                                                             
C 17.45 16.27 60.34                                                             
C 21.47 13.95  3.55                                                             
C 21.47 13.95 17.75                                                             
C 21.47 13.95 31.94                                                             
C 21.47 13.95 46.14                                                             
C 21.47 13.95 60.34                                                             
C 25.50 11.62  3.55                                                             
C 25.50 11.62 17.75                                                             
C 25.50 11.62 31.94                                                             
C 25.50 11.62 46.14                                                             
C 25.50 11.62 60.34                                                             
C 29.52  9.30  3.55                                                             
C 29.52  9.30 17.75                                                             
C 29.52  9.30 31.94                                                             
C 29.52  9.30 46.14                                                             
C 29.52  9.30 60.34                                                             
C 25.50 16.27  3.55                                                             
C 25.50 16.27 17.75                                                             
C 25.50 16.27 31.94                                                             
C 25.50 16.27 46.14                                                             
C 25.50 16.27 60.34                                                             
C 29.52 13.95  3.55                                                             
C 29.52 13.95 17.75                                                             
C 29.52 13.95 31.94                                                             
C 29.52 13.95 46.14                                                             
C 29.52 13.95 60.34                                                             
C  2.68  0.00 10.65                                                             
C  2.68  0.00 24.85                                                             
C  2.68  0.00 39.04                                                             
C  2.68  0.00 53.24                                                             
C  2.68  0.00 67.44                                                             
C  2.68  4.65 10.65                                                             
C  2.68  4.65 24.85                                                             
C  2.68  4.65 39.04                                                             
C  2.68  4.65 53.24                                                             
C  2.68  4.65 67.44                                                             
C  6.71  2.32 10.65                                                             
C  6.71  2.32 24.85                                                             
C  6.71  2.32 39.04                                                             
C  6.71  2.32 53.24                                                             
C  6.71  2.32 67.44                                                             
C 10.74  0.00 10.65                                                             
C 10.74  0.00 24.85                                                             
C 10.74  0.00 39.04                                                             
C 10.74  0.00 53.24                                                             
C 10.74  0.00 67.44                                                             
C  2.68  9.30 10.65                                                             
C  2.68  9.30 24.85                                                             
C  2.68  9.30 39.04                                                             
C  2.68  9.30 53.24                                                             
C  2.68  9.30 67.44                                                             
C  6.71  6.97 10.65                                                             
C  6.71  6.97 24.85                                                             
C  6.71  6.97 39.04                                                             
C  6.71  6.97 53.24                                                             
C  6.71  6.97 67.44                                                             
C 10.74  4.65 10.65                                                             
C 10.74  4.65 24.85                                                             
C 10.74  4.65 39.04                                                             
C 10.74  4.65 53.24                                                             
C 10.74  4.65 67.44                                                             
C 14.76  2.32 10.65                                                             
C 14.76  2.32 24.85                                                             
C 14.76  2.32 39.04                                                             
C 14.76  2.32 53.24                                                             
C 14.76  2.32 67.44                                                             
C 18.79  0.00 10.65                                                             
C 18.79  0.00 24.85                                                             
C 18.79  0.00 39.04                                                             
C 18.79  0.00 53.24                                                             
C 18.79  0.00 67.44                                                             
C  2.68 13.95 10.65                                                             
C  2.68 13.95 24.85                                                             
C  2.68 13.95 39.04                                                             
C  2.68 13.95 53.24                                                             
C  2.68 13.95 67.44                                                             
C  6.71 11.62 10.65                                                             
C  6.71 11.62 24.85                                                             
C  6.71 11.62 39.04                                                             
C  6.71 11.62 53.24                                                             
C  6.71 11.62 67.44                                                             
C 10.74  9.30 10.65                                                             
C 10.74  9.30 24.85                                                             
C 10.74  9.30 39.04                                                             
C 10.74  9.30 53.24                                                             
C 10.74  9.30 67.44                                                             
C 14.76  6.97 10.65                                                             
C 14.76  6.97 24.85                                                             
C 14.76  6.97 39.04                                                             
C 14.76  6.97 53.24                                                             
C 14.76  6.97 67.44                                                             
C 18.79  4.65 10.65                                                             
C 18.79  4.65 24.85                                                             
C 18.79  4.65 39.04                                                             
C 18.79  4.65 53.24                                                             
C 18.79  4.65 67.44                                                             
C 22.81  2.32 10.65                                                             
C 22.81  2.32 24.85                                                             
C 22.81  2.32 39.04                                                             
C 22.81  2.32 53.24                                                             
C 22.81  2.32 67.44                                                             
C 26.84  0.00 10.65                                                             
C 26.84  0.00 24.85                                                             
C 26.84  0.00 39.04                                                             
C 26.84  0.00 53.24                                                             
C 26.84  0.00 67.44                                                             
C  6.71 16.27 10.65                                                             
C  6.71 16.27 24.85                                                             
C  6.71 16.27 39.04                                                             
C  6.71 16.27 53.24                                                             
C  6.71 16.27 67.44                                                             
C 10.74 13.95 10.65                                                             
C 10.74 13.95 24.85                                                             
C 10.74 13.95 39.04                                                             
C 10.74 13.95 53.24                                                             
C 10.74 13.95 67.44                                                             
C 14.76 11.62 10.65                                                             
C 14.76 11.62 24.85                                                             
C 14.76 11.62 39.04                                                             
C 14.76 11.62 53.24                                                             
C 14.76 11.62 67.44                                                             
C 18.79  9.30 10.65                                                             
C 18.79  9.30 24.85                                                             
C 18.79  9.30 39.04                                                             
C 18.79  9.30 53.24                                                             
C 18.79  9.30 67.44                                                             
C 22.81  6.97 10.65                                                             
C 22.81  6.97 24.85                                                             
C 22.81  6.97 39.04                                                             
C 22.81  6.97 53.24                                                             
C 22.81  6.97 67.44                                                             
C 26.84  4.65 10.65                                                             
C 26.84  4.65 24.85                                                             
C 26.84  4.65 39.04                                                             
C 26.84  4.65 53.24                                                             
C 26.84  4.65 67.44                                                             
C 30.86  2.32 10.65                                                             
C 30.86  2.32 24.85                                                             
C 30.86  2.32 39.04                                                             
C 30.86  2.32 53.24                                                             
C 30.86  2.32 67.44                                                             
C 14.76 16.27 10.65                                                             
C 14.76 16.27 24.85                                                             
C 14.76 16.27 39.04                                                             
C 14.76 16.27 53.24                                                             
C 14.76 16.27 67.44                                                             
C 18.79 13.95 10.65                                                             
C 18.79 13.95 24.85                                                             
C 18.79 13.95 39.04                                                             
C 18.79 13.95 53.24                                                             
C 18.79 13.95 67.44                                                             
C 22.81 11.62 10.65                                                             
C 22.81 11.62 24.85                                                             
C 22.81 11.62 39.04                                                             
C 22.81 11.62 53.24                                                             
C 22.81 11.62 67.44                                                             
C 26.84  9.30 10.65                                                             
C 26.84  9.30 24.85                                                             
C 26.84  9.30 39.04                                                             
C 26.84  9.30 53.24                                                             
C 26.84  9.30 67.44                                                             
C 30.86  6.97 10.65                                                             
C 30.86  6.97 24.85                                                             
C 30.86  6.97 39.04                                                             
C 30.86  6.97 53.24                                                             
C 30.86  6.97 67.44                                                             
C 22.81 16.27 10.65                                                             
C 22.81 16.27 24.85                                                             
C 22.81 16.27 39.04                                                             
C 22.81 16.27 53.24                                                             
C 22.81 16.27 67.44                                                             
C 26.84 13.95 10.65                                                             
C 26.84 13.95 24.85                                                             
C 26.84 13.95 39.04                                                             
C 26.84 13.95 53.24                                                             
C 26.84 13.95 67.44                                                             
C 30.86 11.62 10.65                                                             
C 30.86 11.62 24.85                                                             
C 30.86 11.62 39.04                                                             
C 30.86 11.62 53.24                                                             
C 30.86 11.62 67.44                                                             
C 30.86 16.27 10.65                                                             
C 30.86 16.27 24.85                                                             
C 30.86 16.27 39.04                                                             
C 30.86 16.27 53.24                                                             
C 30.86 16.27 67.44                                                             
%ENDBLOCK POSITIONS_ABS                                                         

--------------------------------------------------------------------------------
-------------------------------- END INPUT FILE --------------------------------
--------------------------------------------------------------------------------


 
<<<<<<<<<<<<<<<<<<<<<<<<<<<<<<<<< Full system >>>>>>>>>>>>>>>>>>>>>>>>>>>>>>>>>>
<<<<<<<<<<<<<<<<<<<<<<<<<<< PAW Dataset information >>>>>>>>>>>>>>>>>>>>>>>>>>>
File: ~/pp/paw/c_pbe_abinit.paw; rc = 1.25 bohr; shape type =  3; rshape = 1.25 bohr;
  Atomic number:  6;  ionic charge:  4.000000
    Partial Wave 1: l = 0
    Partial Wave 2: l = 0
    Partial Wave 3: l = 1
    Partial Wave 4: l = 1
  Core charge supplied for Nonlinear Core Corrections
<<<<<<<<<<<<<<<<<<<<<<<<<<<<<<<<<<<<<<< >>>>>>>>>>>>>>>>>>>>>>>>>>>>>>>>>>>>>>>

-------------------------- Atom counting information ---------------------------
Symbol    Natoms    Nngwfs    Nprojs
  C        640      2560      5120
.......   ......    ......    ......
Totals:    640      2560      5120
--------------------------------------------------------------------------------

=============================== PSINC grid sizes ===============================
                      Simulation cell:   63 x  35 x 140
                              FFT-box:   63 x  35 x 117
                                  PPD:    7 x   5 x   1
Grid space d1=  0.511269841270a0 (KE cutoff=  29.06054Eh = 790.77748eV)
Grid space d2=  0.531142857143a0 (KE cutoff=  26.92659Eh = 732.70972eV)
Grid space d3=  0.507071428571a0 (KE cutoff=  29.54376Eh = 803.92653eV)
================================================================================
  
WARNING in cell_grid_distribute:
Average of less than one 23-slab per node, so workload cannot be
equally balanced between nodes.

********************* Fourier parallelisation information **********************
       Coarse grid (whole simulation cell) dimensions:     63    35   140
          Real-space ('12') slabs/node (min max mean):      3     4     3
         Recip-space ('23') slabs/node (min max mean):      0     1     0
********************************************************************************

********************* Fourier parallelisation information **********************
       Double grid (whole simulation cell) dimensions:    126    70   280
          Real-space ('12') slabs/node (min max mean):      7     7     7
         Recip-space ('23') slabs/node (min max mean):      1     2     1
********************************************************************************

Atom SCF Calculation for C  : Z (AE atom) =   6 : Z (PS atom) =   4
Config String: 2s2 2p2
Orbitals (num,occ):  2     2.00 2.00
Orbitals   (num,l):  2        0    1
Real-space Grid (nr,dr,rmax): 1293    0.0069659443    9.0000000000
Spherical Bessel Basis (nsws,lmax,cutoff):   37    2  161.4736382572
Confining potential (l,width,scale):  0    3.0000000000  100.0000000000
Confining potential (l,width,scale):  1    3.0000000000  100.0000000000
  1         -5.4283124456   -1.2935102156    4.5135257941   -1.5923561795
  2         -5.4241534249   -1.3636937911    4.4427183619   -1.5694122055
  3         -5.4326289545   -1.3865748334    4.4195613881   -1.5634604620
  4         -5.4368073263   -1.3933479911    4.4127833993   -1.5619680687
  5         -5.4388652800   -1.3969668505    4.4091714945   -1.5612108736
  6         -5.4399077146   -1.3988848872    4.4072644158   -1.5608235486
  7         -5.4404434041   -1.3998980658    4.4062615348   -1.5606243010
  8         -5.4407208401   -1.4004325328    4.4057350952   -1.5605214507
  9         -5.4408651553   -1.4007143559    4.4054589454   -1.5604682523
 10         -5.4409404127   -1.4008629743    4.4053141024   -1.5604407028
 11         -5.4409797152   -1.4009413770    4.4052381126   -1.5604264250
 12         -5.4410002582   -1.4009827603    4.4051982277   -1.5604190215
 13         -5.4410110012   -1.4010046176    4.4051772812   -1.5604151811
 14         -5.4410166211   -1.4010161701    4.4051662735   -1.5604131883
 15         -5.4410195614   -1.4010222805    4.4051604845   -1.5604121539
 16         -5.4410211001   -1.4010255150    4.4051574379   -1.5604116169
 17         -5.4410219052   -1.4010272285    4.4051558332   -1.5604113379
 18         -5.4410223266   -1.4010281369    4.4051549874   -1.5604111930
 19         -5.4410225472   -1.4010286190    4.4051545411   -1.5604111177
 20         -5.4410226626   -1.4010288749    4.4051543055   -1.5604110786
 21         -5.4410227231   -1.4010290110    4.4051541810   -1.5604110582
Atom SCF converged after  21 iterations to a total energy of     -5.44102272

Determining parallel strategy ...
... using space-filling curve
... NGWF load balancing: max     64;  min     64;  average     64
... Projector load balancing: max    128;  min    128;  average    128
... done
Calculating Ewald energy ...
              Ewald: real-space energy =    9484.647111
        Ewald: reciprocal-space energy =       0.376905
         Ewald: (sum_charge)**2 Energy =   10895.174240
         Ewald: (sum_charge**2) Energy =     861.339153
                          Ewald Energy =   -2271.489376
Basis initialisation ...... NGWF spheres initialised
... Projector spheres initialised
... NGWF tight boxes initialised
... Projector tight boxes initialised
... Tight-boxes gathered
... NGWF basis size (local,global):     691956  27874240
... PAW projector initialisation
... done

============================= Charge Augmentation ==============================
                           Aug box size:   11 x  11 x  11
================================================================================

========================== Sparse matrix information ===========================
                        Overlap matrix filling:  40.94%
                        Density kernel filling: 100.00%
              NGWF-Proj overlap matrix filling:  12.19%
                    Aug Overlap matrix filling:  47.03%
                    Hamiltonian matrix filling:  47.03%
                  NGWF diagonal matrix filling:   0.16%
                             KS matrix filling: 100.00% 
                           KSKS matrix filling: 100.00% 
================================================================================

Sparse matrix initialisation ... done
NGWF initialisation ...... done
============ Calculation of NGWF S^-1 using Hotelling algorithm ================ 
         Iteration  |  Frobenius norm and Maximum abs value    (of I-S*S_n^-1)   
               1       0.48944912E+02     0.97450232E+00
               2       0.47641023E+02     0.95086336E+00
               3       0.45710601E+02     0.90831360E+00
               4       0.43242153E+02     0.83777889E+00
               5       0.40311687E+02     0.73389840E+00
               6       0.36949770E+02     0.67253259E+00
               7       0.33506912E+02     0.62625163E+00
               8       0.30216513E+02     0.58715628E+00
               9       0.26616440E+02     0.54215014E+00
              10       0.22009911E+02     0.47013053E+00
              11       0.16031744E+02     0.35690616E+00
              12       0.92734418E+01     0.21103872E+00
              13       0.35726846E+01     0.79150053E-01
              14       0.63401320E+00     0.12859338E-01
              15       0.23644268E-01     0.41693513E-03
              16       0.42226703E-04     0.56146578E-06
              17       0.20458304E-09     0.16504575E-11
              18       0.70042051E-13     0.39968029E-14
================================================================================
Calculating core density ...
================================= Core Density =================================
               Core den box size:   21 x  21 x  21
================================================================================
 ... done
Up spin density kernel initialisation ...... done

Writing density kernel to file "3.756468_GO_manual_4x64graphite.dkn" ... done

>>> Optimising kernel for current NGWFs:

--------------------------- Ensemble-DFT optimisation --------------------------
Running ScaLAPACK on   40 processor(s).

--------------------------------------------------------------------------------
  Iter                              Commutator    Free_energy(A=E-TS)     DeltaA
#    0                          0.000029591267   -3649.74580626597390  -3.65E+03

Step                       =       0.381966011250
Energy                     =   -3649.745778028027
Entropy (-TS)              =      -0.000028238291
Free energy (A=E-TS)       =   -3649.745806265974
Est. 0K Energy 0.5*(E+A)   =   -3649.745792147000
Residual Non-orthogonality =       0.000000000000
Residual N_electrons       =       0.000000000345

Spin          Integrated_Ne            Fermi_level     Delta_Fermi_level
   1      2559.999999997855         0.160640610308              1.61E-01

                           Spin 1          
     Orb      H-eigenvalues     Occupancies
       1 |    -0.5608116053    1.0000000000 | 
                          ------
    1276 |     0.1256683882    0.9999840072 | 
    1277 |     0.1262895483    0.9999805415 | 
    1278 |     0.1262955255    0.9999805048 | 
    1279 |     0.1263659858    0.9999800661 | 
    1280 |     0.1269934502    0.9999756981 | 
                 - Gap at zero temperature -
    1281 |     0.1966296369    0.0000116007 | 
    1282 |     0.1966351997    0.0000115803 | 
    1283 |     0.1966394704    0.0000115647 | 
    1284 |     0.1967669952    0.0000111083 | 
    1285 |     0.1967705044    0.0000110960 | 
                          ------
    2560 |     0.9931405067    0.0000000000 | 

                       |  Abs_value |  Threshold | Converged
     Delta_Free_energy |   3.65E+03 |   1.00E-06 |        No
     Delta_Energy      |   3.65E+03 |   1.00E-04 |        No
     Delta_Entropy     |   2.82E-05 |   1.00E-04 |       Yes
     Commutator        |   2.96E-05 |   1.00E-05 |        No
     Delta_Fermi_level |   1.61E-01 |   1.00E-03 |        No

  Line search of the free energy minimum:
  Step_type        Step             Free_energy   Predicted_free_energy
.   Initial    0.000000    -3649.74580626597390
.    Trial1    0.381966    -3649.74679071047922
.    Trial2    0.618034    -3649.74691088475902
. Quadratic    0.576060    -3649.74691674336145    -3649.74691678070258

--------------------------------------------------------------------------------
  Iter                              Commutator    Free_energy(A=E-TS)     DeltaA
#    1                          0.000017400642   -3649.74691674336145  -1.11E-03

Step                       =       0.576059821336
Energy                     =   -3649.746888299029
Entropy (-TS)              =      -0.000028444336
Free energy (A=E-TS)       =   -3649.746916743361
Est. 0K Energy 0.5*(E+A)   =   -3649.746902521195
Residual Non-orthogonality =       0.000000000000
Residual N_electrons       =       0.000000000003

Spin          Integrated_Ne            Fermi_level     Delta_Fermi_level
   1      2559.999999999980         0.158906736947             -1.73E-03

                           Spin 1          
     Orb      H-eigenvalues     Occupancies
       1 |    -0.5641121229    1.0000000000 | 
                          ------
    1276 |     0.1240147999    0.9999835966 | 
    1277 |     0.1244856614    0.9999809670 | 
    1278 |     0.1244915614    0.9999809315 | 
    1279 |     0.1247003944    0.9999796317 | 
    1280 |     0.1251772756    0.9999763216 | 
                 - Gap at zero temperature -
    1281 |     0.1947975223    0.0000119662 | 
    1282 |     0.1948248680    0.0000118633 | 
    1283 |     0.1948287291    0.0000118488 | 
    1284 |     0.1949488853    0.0000114077 | 
    1285 |     0.1949598401    0.0000113683 | 
                          ------
    2560 |     0.9898927594    0.0000000000 | 

                       |  Abs_value |  Threshold | Converged
     Delta_Free_energy |   1.11E-03 |   1.00E-06 |        No
     Delta_Energy      |   1.11E-03 |   1.00E-04 |        No
     Delta_Entropy     |   2.06E-07 |   1.00E-04 |       Yes
     Commutator        |   1.74E-05 |   1.00E-05 |        No
     Delta_Fermi_level |   1.73E-03 |   1.00E-03 |        No

  Line search of the free energy minimum:
  Step_type        Step             Free_energy   Predicted_free_energy
.   Initial    0.000000    -3649.74691674336145
.    Trial1    0.576060    -3649.74674341827676
.    Trial2    0.220035    -3649.74719609571730
. Quadratic    0.253925    -3649.74720115248601    -3649.74720116192884

--------------------------------------------------------------------------------
  Iter                              Commutator    Free_energy(A=E-TS)     DeltaA
#    2                          0.000009249650   -3649.74720115248601  -2.84E-04

Step                       =       0.253925006102
Energy                     =   -3649.747172676608
Entropy (-TS)              =      -0.000028475801
Free energy (A=E-TS)       =   -3649.747201152486
Est. 0K Energy 0.5*(E+A)   =   -3649.747186914547
Residual Non-orthogonality =       0.000000000000
Residual N_electrons       =      -0.000000000077

Spin          Integrated_Ne            Fermi_level     Delta_Fermi_level
   1      2560.000000000483         0.158585408607             -3.21E-04

                           Spin 1          
     Orb      H-eigenvalues     Occupancies
       1 |    -0.5647302611    1.0000000000 | 
                          ------
    1276 |     0.1236656499    0.9999837400 | 
    1277 |     0.1241843582    0.9999808463 | 
    1278 |     0.1241906160    0.9999808084 | 
    1279 |     0.1243480245    0.9999798303 | 
    1280 |     0.1248731730    0.9999761924 | 
                 - Gap at zero temperature -
    1281 |     0.1944921382    0.0000119061 | 
    1282 |     0.1945204812    0.0000118000 | 
    1283 |     0.1945235023    0.0000117888 | 
    1284 |     0.1946469627    0.0000113380 | 
    1285 |     0.1946581383    0.0000112981 | 
                          ------
    2560 |     0.9892792848    0.0000000000 | 

                       |  Abs_value |  Threshold | Converged
     Delta_Free_energy |   2.84E-04 |   1.00E-06 |        No
     Delta_Energy      |   2.84E-04 |   1.00E-04 |        No
     Delta_Entropy     |   3.15E-08 |   1.00E-04 |       Yes
     Commutator        |   9.25E-06 |   1.00E-05 |       Yes
     Delta_Fermi_level |   3.21E-04 |   1.00E-03 |       Yes

  Line search of the free energy minimum:
  Step_type        Step             Free_energy   Predicted_free_energy
.   Initial    0.000000    -3649.74720115248601
.    Trial1    0.253925    -3649.74727718020677
.    Trial2    0.538900    -3649.74728314765116
. Quadratic    0.416675    -3649.74729086443995    -3649.74729086725256

--------------------------------------------------------------------------------
  Iter                              Commutator    Free_energy(A=E-TS)     DeltaA
#    3                          0.000006349621   -3649.74729086443995  -8.97E-05

Step                       =       0.416674604348
Energy                     =   -3649.747262354676
Entropy (-TS)              =      -0.000028509711
Free energy (A=E-TS)       =   -3649.747290864440
Est. 0K Energy 0.5*(E+A)   =   -3649.747276609558
Residual Non-orthogonality =       0.000000000000
Residual N_electrons       =      -0.000000000054

Spin          Integrated_Ne            Fermi_level     Delta_Fermi_level
   1      2560.000000000339         0.158190242311             -3.95E-04

                           Spin 1          
     Orb      H-eigenvalues     Occupancies
       1 |    -0.5654777863    1.0000000000 | 
                          ------
    1276 |     0.1232564803    0.9999838118 | 
    1277 |     0.1237961079    0.9999808044 | 
    1278 |     0.1238027144    0.9999807643 | 
    1279 |     0.1239353321    0.9999799417 | 
    1280 |     0.1244817840    0.9999761640 | 
                 - Gap at zero temperature -
    1281 |     0.1941017181    0.0000118883 | 
    1282 |     0.1941310081    0.0000117788 | 
    1283 |     0.1941333269    0.0000117702 | 
    1284 |     0.1942593254    0.0000113111 | 
    1285 |     0.1942707162    0.0000112705 | 
                          ------
    2560 |     0.9885484210    0.0000000000 | 

                       |  Abs_value |  Threshold | Converged
     Delta_Free_energy |   8.97E-05 |   1.00E-06 |        No
     Delta_Energy      |   8.97E-05 |   1.00E-04 |       Yes
     Delta_Entropy     |   3.39E-08 |   1.00E-04 |       Yes
     Commutator        |   6.35E-06 |   1.00E-05 |       Yes
     Delta_Fermi_level |   3.95E-04 |   1.00E-03 |       Yes

  Line search of the free energy minimum:
  Step_type        Step             Free_energy   Predicted_free_energy
.   Initial    0.000000    -3649.74729086443995
.    Trial1    0.416675    -3649.74731441510630
.    Trial2    0.639485    -3649.74724933561993
. Quadratic    0.260178    -3649.74732776842029    -3649.74732776604105

--------------------------------------------------------------------------------
  Iter                              Commutator    Free_energy(A=E-TS)     DeltaA
#    4                          0.000003913047   -3649.74732776842029  -3.69E-05

Step                       =       0.260178251574
Energy                     =   -3649.747299247379
Entropy (-TS)              =      -0.000028521235
Free energy (A=E-TS)       =   -3649.747327768420
[...]
 C   160 -- C   385       -0.10      5.37000
 C   159 -- C   384       -0.10      5.37000
 C   158 -- C   383       -0.10      5.37000
 C   157 -- C   382       -0.10      5.37000
 C   156 -- C   381       -0.10      5.37000
 C   155 -- C   355       -0.10      5.37000
 C   154 -- C   354       -0.10      5.37000
 C   153 -- C   353       -0.10      5.37000
 C   152 -- C   352       -0.10      5.37000
 C   151 -- C   351       -0.10      5.37000
 C   140 -- C   335       -0.10      5.37000
 C   139 -- C   334       -0.10      5.37000
 C   138 -- C   333       -0.10      5.37000
 C   137 -- C   332       -0.10      5.37000
 C   136 -- C   331       -0.10      5.37000
 C   115 -- C   325       -0.10      5.37000
 C   114 -- C   324       -0.10      5.37000
 C   113 -- C   323       -0.10      5.37000
 C   112 -- C   322       -0.10      5.37000
 C   111 -- C   321       -0.10      5.37000
 C   219 -- C   569       -0.09      5.37202
 C   218 -- C   568       -0.09      5.37202
 C   217 -- C   567       -0.09      5.37202
 C   216 -- C   566       -0.09      5.37202
 C   250 -- C   540       -0.09      5.37202
 C   249 -- C   539       -0.09      5.37202
 C   248 -- C   538       -0.09      5.37202
 C   247 -- C   537       -0.09      5.37202
 C   246 -- C   536       -0.09      5.37202
 C   220 -- C   570       -0.09      5.37202
 C   285 -- C   580       -0.09      5.37202
 C   284 -- C   579       -0.09      5.37202
 C   283 -- C   578       -0.09      5.37202
 C   282 -- C   577       -0.09      5.37202
 C   281 -- C   576       -0.09      5.37202
 C   260 -- C   605       -0.09      5.37202
 C   259 -- C   604       -0.09      5.37202
 C   258 -- C   603       -0.09      5.37202
 C   257 -- C   602       -0.09      5.37202
 C   256 -- C   601       -0.09      5.37202
 C   220 -- C   515       -0.09      5.37202
 C   219 -- C   514       -0.09      5.37202
 C   218 -- C   513       -0.09      5.37202
 C   217 -- C   512       -0.09      5.37202
 C   216 -- C   511       -0.09      5.37202
 C   195 -- C   540       -0.09      5.37202
 C   195 -- C   500       -0.09      5.37202
 C   194 -- C   539       -0.09      5.37202
 C   194 -- C   499       -0.09      5.37202
 C   193 -- C   538       -0.09      5.37202
 C   193 -- C   498       -0.09      5.37202
 C   192 -- C   537       -0.09      5.37202
 C   192 -- C   497       -0.09      5.37202
 C   191 -- C   536       -0.09      5.37202
 C   191 -- C   496       -0.09      5.37202
 C   180 -- C   515       -0.09      5.37202
 C   179 -- C   514       -0.09      5.37202
 C   178 -- C   513       -0.09      5.37202
 C   177 -- C   512       -0.09      5.37202
 C   176 -- C   511       -0.09      5.37202
 C    11 -- C   331       -0.09      5.37202
 C   205 -- C   550       -0.09      5.37202
 C   204 -- C   549       -0.09      5.37202
 C   203 -- C   548       -0.09      5.37202
 C   202 -- C   547       -0.09      5.37202
 C   201 -- C   546       -0.09      5.37202
 C    95 -- C   425       -0.09      5.37202
 C    95 -- C   365       -0.09      5.37202
 C    94 -- C   424       -0.09      5.37202
 C    94 -- C   364       -0.09      5.37202
 C    93 -- C   423       -0.09      5.37202
 C    93 -- C   363       -0.09      5.37202
 C    92 -- C   422       -0.09      5.37202
 C    92 -- C   362       -0.09      5.37202
 C    91 -- C   421       -0.09      5.37202
 C    91 -- C   361       -0.09      5.37202
 C    40 -- C   365       -0.09      5.37202
 C    39 -- C   364       -0.09      5.37202
 C    38 -- C   363       -0.09      5.37202
 C    37 -- C   362       -0.09      5.37202
 C    36 -- C   361       -0.09      5.37202
 C    15 -- C   335       -0.09      5.37202
 C    65 -- C   395       -0.09      5.37202
 C    65 -- C   345       -0.09      5.37202
 C    64 -- C   394       -0.09      5.37202
 C    64 -- C   344       -0.09      5.37202
 C    63 -- C   393       -0.09      5.37202
 C    30 -- C   355       -0.10      5.37202
 C    63 -- C   343       -0.09      5.37202
 C    62 -- C   392       -0.09      5.37202
 C    30 -- C   325       -0.09      5.37202
 C    14 -- C   334       -0.09      5.37202
 C    62 -- C   342       -0.09      5.37202
 C    61 -- C   391       -0.09      5.37202
 C    29 -- C   354       -0.10      5.37202
 C    61 -- C   341       -0.09      5.37202
 C    29 -- C   324       -0.09      5.37202
 C   260 -- C   550       -0.09      5.37202
 C   259 -- C   549       -0.09      5.37202
 C    28 -- C   353       -0.10      5.37202
 C   258 -- C   548       -0.09      5.37202
 C   257 -- C   547       -0.09      5.37202
 C   256 -- C   546       -0.09      5.37202
 C    28 -- C   323       -0.09      5.37202
 C    27 -- C   352       -0.10      5.37202
 C    13 -- C   333       -0.09      5.37202
 C    27 -- C   322       -0.09      5.37202
 C   120 -- C   395       -0.09      5.37202
 C    26 -- C   351       -0.10      5.37202
 C   119 -- C   394       -0.09      5.37202
 C   118 -- C   393       -0.09      5.37202
 C    55 -- C   335       -0.09      5.37202
 C   117 -- C   392       -0.09      5.37202
 C    26 -- C   321       -0.09      5.37202
 C   116 -- C   391       -0.09      5.37202
 C    54 -- C   334       -0.09      5.37202
 C    12 -- C   332       -0.09      5.37202
 C    53 -- C   333       -0.09      5.37202
 C   230 -- C   580       -0.09      5.37202
 C   230 -- C   525       -0.09      5.37202
 C   229 -- C   579       -0.09      5.37202
 C   229 -- C   524       -0.09      5.37202
 C   228 -- C   578       -0.09      5.37202
 C    52 -- C   332       -0.09      5.37202
 C   228 -- C   523       -0.09      5.37202
 C   227 -- C   577       -0.09      5.37202
 C   227 -- C   522       -0.09      5.37202
 C   226 -- C   576       -0.09      5.37202
 C   226 -- C   521       -0.09      5.37202
 C    51 -- C   331       -0.09      5.37202
 C    23 -- C   478       -0.09      5.37202
 C    49 -- C   469       -0.09      5.37202
 C    48 -- C   468       -0.09      5.37202
 C    47 -- C   467       -0.09      5.37202
 C    22 -- C   477       -0.09      5.37202
 C    46 -- C   466       -0.09      5.37202
 C    21 -- C   476       -0.09      5.37202
 C    85 -- C   355       -0.09      5.37202
 C    84 -- C   354       -0.09      5.37202
 C    83 -- C   353       -0.09      5.37202
 C    82 -- C   352       -0.09      5.37202
 C    81 -- C   351       -0.09      5.37202
 C    55 -- C   385       -0.09      5.37202
 C    54 -- C   384       -0.09      5.37202
 C    25 -- C   480       -0.09      5.37202
 C    53 -- C   383       -0.09      5.37202
 C    52 -- C   382       -0.09      5.37202
 C    51 -- C   381       -0.09      5.37202
 C    24 -- C   479       -0.09      5.37202
 C    50 -- C   470       -0.09      5.37202
 C    24 -- C   449       -0.09      5.37202
 C     6 -- C   416       -0.09      5.37202
 C    23 -- C   448       -0.09      5.37202
 C    22 -- C   447       -0.09      5.37202
 C    10 -- C   470       -0.09      5.37202
 C     5 -- C   450       -0.09      5.37202
 C    21 -- C   446       -0.09      5.37202
 C    10 -- C   420       -0.09      5.37202
 C     9 -- C   469       -0.09      5.37202
 C     9 -- C   419       -0.09      5.37202
 C     8 -- C   468       -0.09      5.37202
 C     4 -- C   449       -0.09      5.37202
 C   150 -- C   440       -0.09      5.37202
 C   149 -- C   439       -0.09      5.37202
 C   148 -- C   438       -0.09      5.37202
 C   147 -- C   437       -0.09      5.37202
 C     8 -- C   418       -0.09      5.37202
 C   146 -- C   436       -0.09      5.37202
 C     2 -- C   447       -0.09      5.37202
 C   135 -- C   460       -0.09      5.37202
 C     7 -- C   467       -0.09      5.37202
 C   134 -- C   459       -0.09      5.37202
 C   133 -- C   458       -0.09      5.37202
 C   132 -- C   457       -0.09      5.37202
 C   131 -- C   456       -0.09      5.37202
 C     7 -- C   417       -0.09      5.37202
 C     1 -- C   446       -0.09      5.37202
 C     6 -- C   466       -0.09      5.37202
 C    25 -- C   450       -0.09      5.37202
 C     3 -- C   448       -0.09      5.37202
 C   106 -- C   436       -0.09      5.37202
 C   106 -- C   376       -0.09      5.37202
 C    80 -- C   410       -0.09      5.37202
 C    79 -- C   409       -0.09      5.37202
 C    78 -- C   408       -0.09      5.37202
 C    77 -- C   407       -0.09      5.37202
 C    76 -- C   406       -0.09      5.37202
 C   135 -- C   410       -0.09      5.37202
 C   134 -- C   409       -0.09      5.37202
 C   133 -- C   408       -0.09      5.37202
 C   132 -- C   407       -0.09      5.37202
 C   131 -- C   406       -0.09      5.37202
 C   110 -- C   440       -0.09      5.37202
 C   110 -- C   380       -0.09      5.37202
 C   109 -- C   439       -0.09      5.37202
 C   109 -- C   379       -0.09      5.37202
 C   108 -- C   438       -0.09      5.37202
 C   108 -- C   378       -0.09      5.37202
 C   107 -- C   437       -0.09      5.37202
 C   107 -- C   377       -0.09      5.37202
 C   215 -- C   635       -0.10      5.38000
 C   214 -- C   634       -0.10      5.38000
 C   213 -- C   633       -0.10      5.38000
 C   212 -- C   632       -0.10      5.38000
 C   211 -- C   631       -0.10      5.38000
 C   190 -- C   620       -0.10      5.38000
 C   189 -- C   619       -0.10      5.38000
 C   188 -- C   618       -0.10      5.38000
 C   187 -- C   617       -0.10      5.38000
 C   186 -- C   616       -0.10      5.38000
 C   175 -- C   595       -0.10      5.38000
 C   174 -- C   594       -0.10      5.38000
 C   173 -- C   593       -0.10      5.38000
 C   172 -- C   592       -0.10      5.38000
 C   171 -- C   591       -0.10      5.38000
 C   245 -- C   640       -0.10      5.38000
 C   244 -- C   639       -0.10      5.38000
 C   243 -- C   638       -0.10      5.38000
 C   242 -- C   637       -0.10      5.38000
 C   241 -- C   636       -0.10      5.38000
==================================================


=================== Orbital energy and occupancy information ===================

      Total number of orbitals:    2560
        Occupancy sum (kernel):    1280.000000000
   Occupancy sum (eigenvalues):    1280.000000000
                 HOMO-LUMO gap:       0.000011610 Eh
                 Mid-gap level:       0.248983935 Eh

                        Orbital | Energy (Eh) | Occupancy
                            1    -0.504022154   1.0000000
                        .......   ...........   .........
                         1272     0.178387349   0.9999884
                         1273     0.178849117   0.9999866
                         1274     0.178858798   0.9999865
                         1275     0.181158448   0.9999721
                         1276     0.181161960   0.9999721
                         1277     0.181628218   0.9999677
                         1278     0.181631675   0.9999677
                         1279     0.182063469   0.9999629
                         1280     0.182530776   0.9999570
                         1281     0.248978130   0.0000179
                        ....... -- gap at 0K -- .........
                         1282     0.248989740   0.0000178
                         1283     0.249225783   0.0000165
                         1284     0.249237538   0.0000165
                         1285     0.249358221   0.0000159
                         1286     0.249363623   0.0000159
                         1287     0.249604294   0.0000147
                         1288     0.249615752   0.0000146
                         1289     0.249616146   0.0000147
                         1290     0.249616986   0.0000147
                         1291     0.249621582   0.0000146
                        .......   ...........   .........
                         2560     1.106825488   0.0000000

================================================================================

===================== Writing canonical molecular orbitals =====================
| Orbital  Energy (eV)  Norm     |
| HOMO      6.77503966  1.000000 | Writing "3.756468_GO_manual_4x64graphite_HOMO.cube" ... done
Writing "3.756468_GO_manual_4x64graphite_HOMO.dx" ... done
| LUMO      6.77535559  1.000000 | Writing "3.756468_GO_manual_4x64graphite_LUMO.cube" ... done
Writing "3.756468_GO_manual_4x64graphite_LUMO.dx" ... done
================================================================================
 
===================== Density of States (DOS) calculation ======================
Writing "3.756468_GO_manual_4x64graphite_DOS.txt" ...  done
================================================================================
 
Writing bands to file "3.756468_GO_manual_4x64graphite.val_bands" ... done
 
================ Projected Density of States (pDOS) calculation ================
 
Constructing AM resolved functions  ...... done
Writing NGWF plot files in formats: CUBE DX ...  done
 
Performing overlap integrals ...  done
 
Computing pDOS weights ...  done
 
All bands spilling parameter =   3.05 %
Occupancy-weighted spilling parameter =   0.93 %
 
 => Outputting data for OptaDOS <=
 
Writing pDOS weights to file "3.756468_GO_manual_4x64graphite.val_pdos_bin" ... done
 
Writing band gradients to file "3.756468_GO_manual_4x64graphite.val_dome_bin" ... done
 
Writing Castep output cell file to "3.756468_GO_manual_4x64graphite-out.cell" ... done
 
 => Computing Gaussian smeared pDOS <= 
Writing "3.756468_GO_manual_4x64graphite_PDOS.txt" ...  done
 
 => Computing Occupancy-weighted Gaussian smeared pDOS <= 
Writing "3.756468_GO_manual_4x64graphite_occ_PDOS.txt" ...  done
  => Band centres: 
 S band centre of group 1:  -15.584209 eV
 P band centre of group 1:   -8.462060 eV
  Band centres done. <=
  => Integrated number of electrons in each AM band: 
 S num electrons of group 1:  574.047579
 P num electrons of group 1: 1962.203143
  Integrated number of electrons done. <=
================================================================================

------------------------------ TIMING INFORMATION ------------------------------
AVERAGE TIME:    3062.651s on     40 node(s)                                    
TOTAL TIME:      3062.652s on     40 node(s)                                    
================= AVERAGE TIMINGS FROM ALL NODES (CUMULATIVE) ==================
|| TAG                                    #calls    cpu time   %total  Gflops ||
|| work_imbalance                       :     1        0.00s   0.000%  ------ ||
|| paw_tcore_hartree_on_grid            :     1        0.01s   0.000%  ------ ||
|| paw_tcore_density                    :     1        0.01s   0.000%  ------ ||
|| paw_sphere_density_on_grid           :     1        0.01s   0.000%  ------ ||
|| sparse_set_to_garbage                :   135        0.02s   0.001%  ------ ||
|| paw_dij_hartree                      :   279        0.04s   0.001%  ------ ||
|| basis_extract_function_from_box      :  1536        0.06s   0.002%  ------ ||
|| pseudo_make_structure_factor         :     1        0.07s   0.002%  ------ ||
|| paw_species_calc_proj_prec_mat       :     1        0.12s   0.004%  ------ ||
|| paw_dataset_init                     :     1        0.19s   0.006%  ------ ||
|| density_init_guess_real              :     1        0.28s   0.009%  ------ ||
|| ngwfs_initialise_from_radial         :     2        0.67s   0.022%  ------ ||
|| restart_kernel_write                 :    13        0.74s   0.024%  ------ ||
|| sparse_init                          :     1        1.00s   0.033%  ------ ||
|| hartree_on_grid                      :   209        1.09s   0.036%  ------ ||
|| dense_normal_eigensolve              :     1        1.38s   0.045%  ------ ||
|| projectors_init_fftbox_recip         :   121        2.34s   0.076%  ------ ||
|| ewald_calculate_energy               :     1        3.36s   0.110%  ------ ||
|| fourier_apply_box_pair               :  2272        3.76s   0.123% 560.546 ||
|| basis_copy_function_to_box           : 19968        4.31s   0.141%  ------ ||
|| augmentation_screen_dij              :   214        4.72s   0.154%  ------ ||
|| sparse_embed_hotelling_invert_embed  :    23        6.69s   0.218%  ------ ||
|| sw_init                              :     1        6.73s   0.220%  ------ ||
|| ngwf_gradient_coeffs                 :    12        8.55s   0.279%  ------ ||
|| sparse_trace                         :  2524       11.61s   0.379%  ------ ||
|| fourier_apply_cell_backward          :  6450       12.12s   0.396%  70.528 ||
|| cell_grid_extract_box_real           :  8492       12.63s   0.412%  ------ ||
|| fourier_apply_cell_forward           :  6033       13.28s   0.433%  60.217 ||
|| cell_grid_deposit_box_real           : 26928       16.23s   0.530%  ------ ||
|| paw_dij_xc                           :   279       20.10s   0.656%  ------ ||
|| aug_nonlocal_mat                     :   267       28.66s   0.936%  ------ ||
|| density_fftbox_deposit_to_cell       : 13376       32.10s   1.048%  ------ ||
|| augmentation_density_on_grid         :   209       37.51s   1.225%  ------ ||
|| function_ops_brappd_ketppd           :    48       45.34s   1.480%  ------ ||
|| hamiltonian_energy_components        :     3       47.07s   1.537%  ------ ||
|| eigenstates_pdos                     :     1       47.37s   1.547%  ------ ||
|| eigenstates_calculate                :     1       51.34s   1.676%  ------ ||
|| projectors_func_ovlp_box             :    24       53.15s   1.736%  ------ ||
|| xc_energy_potential                  :   208       61.09s   1.995%  ------ ||
|| nlxc_vdw_energy                      :   416       61.50s   2.008%  ------ ||
|| integrals_kinetic                    :    23       75.40s   2.462%  ------ ||
|| dense_eigensolve                     :   182       86.97s   2.840%  ------ ||
|| properties_calculate                 :     1       92.81s   3.030%  ------ ||
|| sparse_product                       :  2561      103.19s   3.369%  ------ ||
|| potential_apply_to_ngwf_batch        :   268      103.44s   3.377%  ------ ||
|| restart_ngwfs_tightbox_output        :    11      120.24s   3.926%  ------ ||
|| basis_dot_function_with_box          : 6.224M     169.32s   5.529%  ------ ||
|| fourier_apply_box                    : 62864      195.05s   6.369% 980.231 ||
|| edft_diag_ngwf_ham                   :   181      206.76s   6.751%  ------ ||
|| projectors_gradient_batch            :    48      216.84s   7.080%  ------ ||
|| integrals_locpot_mat_els_batch       :   268      228.37s   7.457%  ------ ||
|| density_fftbox_interpolate_multiply  : 13376      259.50s   8.473%  ------ ||
|| projectors_grad_precond_batch        :    48      298.43s   9.744%  ------ ||
|| density_batch_interp_deposit         :   836      322.35s  10.525%  ------ ||
|| integrals_locpot_dbl_grid            :    67      332.95s  10.871%  ------ ||
|| edft_apply_smearing_operator         :   181      396.00s  12.930%  ------ ||
|| basis_add_function_to_box            : 17.24M     452.51s  14.775%  ------ ||
|| ngwf_gradient_build_batch            :    48      551.55s  18.009%  ------ ||
|| density_batch_row_sums               :   836      639.60s  20.884%  ------ ||
|| ngwf_gradient_batch                  :    48      729.09s  23.806%  ------ ||
|| ngwf_gradient_lnv                    :    12      756.98s  24.717%  ------ ||
|| density_on_dbl_grid                  :   209      973.96s  31.801%  ------ ||
|| hamiltonian_lhxc_calculate           :   204     1054.61s  34.435%  ------ ||
|| edft_calculate                       :    12     1764.76s  57.622%  ------ ||
|| ngwf_cg_optimise                     :     1     2948.71s  96.280%  ------ ||
|| total_time                           :     1     3062.65s 100.000%  ------ ||
================================================================================
Overhead of generating timer report: 
- 0 ms averaging over threads,
- 6 ms ensuring consistency across MPI ranks,
- 0 ms printing in order.

Job completed: 29-02-2020 14:00 (-0000)

