 +---------------------------------------------------------------+
 |                                                               |
 |        ####### #     # ####### ####### ####### ######         |
 |        #     # ##    # #          #    #       #     #        |
 |        #     # # #   # #          #    #       #     #        |
 |        #     # #  #  # #####      #    #####   ######         |
 |        #     # #   # # #          #    #       #              |
 |        #     # #    ## #          #    #       #              |
 |        ####### #     # #######    #    ####### #              |
 |                                                               |
 |        Linear-Scaling Ab Initio Total Energy Program          |
 |                                                               |
 |          Release for academic collaborators of ODG            |
 |                                             Version 5.3.2.12  |
 |                                                               |
 +---------------------------------------------------------------+
 |                                                               |
 |  Authors:                                                     |
 |  Jacek Dziedzic, Peter D. Haynes, Nicholas D. M. Hine,        |
 |  Arash. A. Mostofi, Mike C. Payne and Chris-Kriton Skylaris   |
 |                                                               |
 |  Contributors:                                                |
 |  J. Aarons, L. Andrinopoulos, P. W. Avraam, R. A. Bell,       |
 |  A. Bhandari, G. A. Bramley, R. J. Charlton, S. J. Clark,     |
 |  R. J. Clements, G. C. Constantinescu, F. Corsetti,           |
 |  N. Corsini, O. Dieguez, S. M. M. Dubois, K. K. B. Duff,      |
 |  J. M. Escartin, A. Greco, H. Helal, Q. O. Hill, L. P. Lee,   |
 |  J.-H. Li, E. B. Linscott, G. Moynihan, D. D. O`Regan,        |
 |  O. K. Okan, M. J. S. Phipps, C. J. Pickard,                  |
 |  J. C. A. Prentice, M. I. J. Probert, L. E. Ratcliff,         |
 |  M. Robinson, A. Ruiz Serrano, J. S. Spencer, E. W. Tait,     |
 |  G. Teobaldi, D. Turban, V. Vitale, K. A. Wilkinson,          |
 |  C. Weber, J. C. Womack, N. Yeung and T. J. Zuehlsdorff       |
 |                                                               |
 |                                   Copyright (c) 2004-2020     |
 |                                                               |
 |  Please cite:                                                 |
 |  "Introducing ONETEP: Linear-scaling density functional       |
 |   simulations on parallel computers".                         |
 |   C.-K. Skylaris, P. D. Haynes, A. A. Mostofi, M. C. Payne.   |
 |   J. Chem. Phys. 122 084119 (2005).                           |
 |                                                               |
 |          in all publications arising from your use of ONETEP. |
 |                                                               |
 +---------------------------------------------------------------+
 |                                                               |
 |   ONETEP is based on developments described in the following  |
 |   publications:                                               |
 |                                                               |
 |  "Nonorthogonal generalized Wannier function pseudopotential  |
 |   plane-wave method".                                         |
 |   C.-K. Skylaris, A. A. Mostofi, P. D. Haynes, O. Dieguez,    |
 |   M. C. Payne.                                                |
 |   Phys. Rev. B 66 035119 (2002).                              |
 |                                                               |
 |  "Preconditioned iterative minimization for linear-scaling    |
 |   electronic structure calculations".                         |
 |   A. A. Mostofi, P. D. Haynes, C.-K. Skylaris, M. C. Payne.   |
 |   J. Chem. Phys. 119(17), pp.8842-8848 (2003).                |
 |                                                               |
 |  "Total-energy calculations on a real space grid with         |
 |   localized functions and a plane-wave basis".                |
 |   A. A. Mostofi, C.-K. Skylaris, P. D. Haynes, M. C. Payne.   |
 |   Comput. Phys. Commun. 147, pp.788-802 (2002).               |
 |                                                               |
 |  "Accurate kinetic energy evaluation in electronic structure  |
 |   calculations with localized functions on real space grids"  |
 |   C.-K. Skylaris, A. A. Mostofi, P. D. Haynes, C. J. Pickard, |
 |   M. C. Payne.                                                |
 |   Comput. Phys. Commun. 140, pp.315-322 (2001).               |
 |                                                               |
 |  "Accurate ionic forces and geometry optimization in linear-  |
 |   scaling density-functional theory with local orbitals"      |
 |   N. D. M. Hine, M. Robinson, P. D. Haynes, C.-K. Skylaris,   |
 |   M. C. Payne, and A. A. Mostofi.                             |
 |   Phys. Rev. B 83 195102 (2011).                              |
 |                                                               |
 +---------------------------------------------------------------+

Job started: 29-02-2020 12:24 (-0000)
 
Reading parameters from file "3.8369616_GO_manual_4x64graphite.dat" ...

WARNING: "cutoff_energy" not specified, but "psinc_spacing" specified.
         Using the latter to set the KE cutoff energy to  732.32021eV,
         thus *overriding* the default.

... done

If your calculation crashes here, before "Checking processes and threads..."
is displayed, then your stack size is insufficient.
If so, use "ulimit -s unlimited" at runtime.
You can disable this check with "check_stack_size F".

Checking processes and threads...
   Determining the default number of threads...
      No default threads set at compilation time: defaulting to 1.
      OpenMP library call suggests 4 threads.
      Hybrid MPI-OpenMP compilation detected.
      Number of MPI processes > 1.
      OMP_NUM_THREADS environment variable present and
      its value matches the one obtained from the OpenMP library call.
      Using this value as default.
      Default threads: 4
      Default applies to threads_max and threads_num_fftboxes.
      Settings in the input file override this default.
   ... done

   Running with 40 MPI processes.
   There are 10 MPI processes running on the same node as the root process.
   Each MPI process is using: 
               1 threads for simulation cell FFTs.
               1 threads for parallel FFT box operations.
               4 threads for loops over batched FFT box operations.
               4 threads in other parallel regions.
... done

Basic input checks...
Resetting ngwf_cg_rotate to TRUE for EDFT calculations
... done

Reading geometry and species blocks from file "3.8369616_GO_manual_4x64graphite.dat" ...
    
  PSINC grid spacing along a1 set to   0.511215680000a0 from input file.
  PSINC grid spacing along a2 set to   0.531284090000a0 from input file.
  PSINC grid spacing along a3 set to   0.507050450000a0 from input file.
  Number of PPD points along a3 set to 1.  This is 
  the default value, it may have been provided also in the input file.
... done
 Writing xyz coordinates to file "3.8369616_GO_manual_4x64graphite.xyz" ... done


--------------------------------------------------------------------------------
---------------------------------- INPUT FILE ----------------------------------
--------------------------------------------------------------------------------

task : singlepoint                                                              
do_properties : true                                                            
dx_format T                                                                     
edft T                                                                          
output_detail VERBOSE                                                           
write_xyz T                                                                     
xc_functional VV10                                                              
PSINC_SPACING 0.51121568 0.53128409 0.50705045                                  
paw T                                                                           
pdos_max_l = 2                                                                  
dos_smear  0.1 eV                                                               
popn_calculate T                                                                
PDOS_PSEUDOATOMIC T                                                             
PDOS_REDUCE_SWS F                                                               
PDOS_CONSTRUCT_BASIS F                                                          
PDOS_LOWDIN T                                                                   
PDOS_ORTH_ATOM_BLOCKS F                                                         
PDOS_LCAO_OPTIMIZE F                                                            
pdos_optados_output T                                                           
homo_plot 0                                                                     
lumo_plot 0                                                                     
homo_dens_plot -1                                                               
lumo_dens_plot -1                                                               
%BLOCK SPECIES                                                                  
C C 6 4 9.0                                                                     
%ENDBLOCK SPECIES                                                               
%BLOCK SPECIES_POT                                                              
C "~/pp/paw/c_pbe_abinit.paw"                                                   
%ENDBLOCK SPECIES_POT                                                           
%BLOCK SPECIES_ATOMIC_SET                                                       
C "SOLVE conf=2s2 2p2"                                                          
%ENDBLOCK SPECIES_ATOMIC_SET                                                    
%BLOCK LATTICE_CART                                                             
32.21  0.00  0.00                                                               
0.00 18.59  0.00                                                                
0.00  0.00 72.51                                                                
%ENDBLOCK LATTICE_CART                                                          
%BLOCK POSITIONS_ABS                                                            
C  0.00  0.00  3.63                                                             
C  0.00  0.00 18.13                                                             
C  0.00  0.00 32.63                                                             
C  0.00  0.00 47.13                                                             
C  0.00  0.00 61.63                                                             
C  0.00  4.65  3.63                                                             
C  0.00  4.65 18.13                                                             
C  0.00  4.65 32.63                                                             
C  0.00  4.65 47.13                                                             
C  0.00  4.65 61.63                                                             
C  4.03  2.32  3.63                                                             
C  4.03  2.32 18.13                                                             
C  4.03  2.32 32.63                                                             
C  4.03  2.32 47.13                                                             
C  4.03  2.32 61.63                                                             
C  8.05  0.00  3.63                                                             
C  8.05  0.00 18.13                                                             
C  8.05  0.00 32.63                                                             
C  8.05  0.00 47.13                                                             
C  8.05  0.00 61.63                                                             
C  0.00  9.30  3.63                                                             
C  0.00  9.30 18.13                                                             
C  0.00  9.30 32.63                                                             
C  0.00  9.30 47.13                                                             
C  0.00  9.30 61.63                                                             
C  4.03  6.97  3.63                                                             
C  4.03  6.97 18.13                                                             
C  4.03  6.97 32.63                                                             
C  4.03  6.97 47.13                                                             
C  4.03  6.97 61.63                                                             
C  8.05  4.65  3.63                                                             
C  8.05  4.65 18.13                                                             
C  8.05  4.65 32.63                                                             
C  8.05  4.65 47.13                                                             
C  8.05  4.65 61.63                                                             
C 12.08  2.32  3.63                                                             
C 12.08  2.32 18.13                                                             
C 12.08  2.32 32.63                                                             
C 12.08  2.32 47.13                                                             
C 12.08  2.32 61.63                                                             
C 16.10  0.00  3.63                                                             
C 16.10  0.00 18.13                                                             
C 16.10  0.00 32.63                                                             
C 16.10  0.00 47.13                                                             
C 16.10  0.00 61.63                                                             
C  0.00 13.95  3.63                                                             
C  0.00 13.95 18.13                                                             
C  0.00 13.95 32.63                                                             
C  0.00 13.95 47.13                                                             
C  0.00 13.95 61.63                                                             
C  4.03 11.62  3.63                                                             
C  4.03 11.62 18.13                                                             
C  4.03 11.62 32.63                                                             
C  4.03 11.62 47.13                                                             
C  4.03 11.62 61.63                                                             
C  8.05  9.30  3.63                                                             
C  8.05  9.30 18.13                                                             
C  8.05  9.30 32.63                                                             
C  8.05  9.30 47.13                                                             
C  8.05  9.30 61.63                                                             
C 12.08  6.97  3.63                                                             
C 12.08  6.97 18.13                                                             
C 12.08  6.97 32.63                                                             
C 12.08  6.97 47.13                                                             
C 12.08  6.97 61.63                                                             
C 16.10  4.65  3.63                                                             
C 16.10  4.65 18.13                                                             
C 16.10  4.65 32.63                                                             
C 16.10  4.65 47.13                                                             
C 16.10  4.65 61.63                                                             
C 20.13  2.32  3.63                                                             
C 20.13  2.32 18.13                                                             
C 20.13  2.32 32.63                                                             
C 20.13  2.32 47.13                                                             
C 20.13  2.32 61.63                                                             
C 24.16  0.00  3.63                                                             
C 24.16  0.00 18.13                                                             
C 24.16  0.00 32.63                                                             
C 24.16  0.00 47.13                                                             
C 24.16  0.00 61.63                                                             
C  4.03 16.27  3.63                                                             
C  4.03 16.27 18.13                                                             
C  4.03 16.27 32.63                                                             
C  4.03 16.27 47.13                                                             
C  4.03 16.27 61.63                                                             
C  8.05 13.95  3.63                                                             
C  8.05 13.95 18.13                                                             
C  8.05 13.95 32.63                                                             
C  8.05 13.95 47.13                                                             
C  8.05 13.95 61.63                                                             
C 12.08 11.62  3.63                                                             
C 12.08 11.62 18.13                                                             
C 12.08 11.62 32.63                                                             
C 12.08 11.62 47.13                                                             
C 12.08 11.62 61.63                                                             
C 16.10  9.30  3.63                                                             
C 16.10  9.30 18.13                                                             
C 16.10  9.30 32.63                                                             
C 16.10  9.30 47.13                                                             
C 16.10  9.30 61.63                                                             
C 20.13  6.97  3.63                                                             
C 20.13  6.97 18.13                                                             
C 20.13  6.97 32.63                                                             
C 20.13  6.97 47.13                                                             
C 20.13  6.97 61.63                                                             
C 24.16  4.65  3.63                                                             
C 24.16  4.65 18.13                                                             
C 24.16  4.65 32.63                                                             
C 24.16  4.65 47.13                                                             
C 24.16  4.65 61.63                                                             
C 28.18  2.32  3.63                                                             
C 28.18  2.32 18.13                                                             
C 28.18  2.32 32.63                                                             
C 28.18  2.32 47.13                                                             
C 28.18  2.32 61.63                                                             
C 12.08 16.27  3.63                                                             
C 12.08 16.27 18.13                                                             
C 12.08 16.27 32.63                                                             
C 12.08 16.27 47.13                                                             
C 12.08 16.27 61.63                                                             
C 16.10 13.95  3.63                                                             
C 16.10 13.95 18.13                                                             
C 16.10 13.95 32.63                                                             
C 16.10 13.95 47.13                                                             
C 16.10 13.95 61.63                                                             
C 20.13 11.62  3.63                                                             
C 20.13 11.62 18.13                                                             
C 20.13 11.62 32.63                                                             
C 20.13 11.62 47.13                                                             
C 20.13 11.62 61.63                                                             
C 24.16  9.30  3.63                                                             
C 24.16  9.30 18.13                                                             
C 24.16  9.30 32.63                                                             
C 24.16  9.30 47.13                                                             
C 24.16  9.30 61.63                                                             
C 28.18  6.97  3.63                                                             
C 28.18  6.97 18.13                                                             
C 28.18  6.97 32.63                                                             
C 28.18  6.97 47.13                                                             
C 28.18  6.97 61.63                                                             
C 20.13 16.27  3.63                                                             
C 20.13 16.27 18.13                                                             
C 20.13 16.27 32.63                                                             
C 20.13 16.27 47.13                                                             
C 20.13 16.27 61.63                                                             
C 24.16 13.95  3.63                                                             
C 24.16 13.95 18.13                                                             
C 24.16 13.95 32.63                                                             
C 24.16 13.95 47.13                                                             
C 24.16 13.95 61.63                                                             
C 28.18 11.62  3.63                                                             
C 28.18 11.62 18.13                                                             
C 28.18 11.62 32.63                                                             
C 28.18 11.62 47.13                                                             
C 28.18 11.62 61.63                                                             
C 28.18 16.27  3.63                                                             
C 28.18 16.27 18.13                                                             
C 28.18 16.27 32.63                                                             
C 28.18 16.27 47.13                                                             
C 28.18 16.27 61.63                                                             
C  0.00  0.00 10.88                                                             
C  0.00  0.00 25.38                                                             
C  0.00  0.00 39.88                                                             
C  0.00  0.00 54.38                                                             
C  0.00  0.00 68.88                                                             
C  0.00  4.65 10.88                                                             
C  0.00  4.65 25.38                                                             
C  0.00  4.65 39.88                                                             
C  0.00  4.65 54.38                                                             
C  0.00  4.65 68.88                                                             
C  4.03  2.32 10.88                                                             
C  4.03  2.32 25.38                                                             
C  4.03  2.32 39.88                                                             
C  4.03  2.32 54.38                                                             
C  4.03  2.32 68.88                                                             
C  8.05  0.00 10.88                                                             
C  8.05  0.00 25.38                                                             
C  8.05  0.00 39.88                                                             
C  8.05  0.00 54.38                                                             
C  8.05  0.00 68.88                                                             
C  0.00  9.30 10.88                                                             
C  0.00  9.30 25.38                                                             
C  0.00  9.30 39.88                                                             
C  0.00  9.30 54.38                                                             
C  0.00  9.30 68.88                                                             
C  4.03  6.97 10.88                                                             
C  4.03  6.97 25.38                                                             
C  4.03  6.97 39.88                                                             
C  4.03  6.97 54.38                                                             
C  4.03  6.97 68.88                                                             
C  8.05  4.65 10.88                                                             
C  8.05  4.65 25.38                                                             
C  8.05  4.65 39.88                                                             
C  8.05  4.65 54.38                                                             
C  8.05  4.65 68.88                                                             
C 12.08  2.32 10.88                                                             
C 12.08  2.32 25.38                                                             
C 12.08  2.32 39.88                                                             
C 12.08  2.32 54.38                                                             
C 12.08  2.32 68.88                                                             
C 16.10  0.00 10.88                                                             
C 16.10  0.00 25.38                                                             
C 16.10  0.00 39.88                                                             
C 16.10  0.00 54.38                                                             
C 16.10  0.00 68.88                                                             
C  0.00 13.95 10.88                                                             
C  0.00 13.95 25.38                                                             
C  0.00 13.95 39.88                                                             
C  0.00 13.95 54.38                                                             
C  0.00 13.95 68.88                                                             
C  4.03 11.62 10.88                                                             
C  4.03 11.62 25.38                                                             
C  4.03 11.62 39.88                                                             
C  4.03 11.62 54.38                                                             
C  4.03 11.62 68.88                                                             
C  8.05  9.30 10.88                                                             
C  8.05  9.30 25.38                                                             
C  8.05  9.30 39.88                                                             
C  8.05  9.30 54.38                                                             
C  8.05  9.30 68.88                                                             
C 12.08  6.97 10.88                                                             
C 12.08  6.97 25.38                                                             
C 12.08  6.97 39.88                                                             
C 12.08  6.97 54.38                                                             
C 12.08  6.97 68.88                                                             
C 16.10  4.65 10.88                                                             
C 16.10  4.65 25.38                                                             
C 16.10  4.65 39.88                                                             
C 16.10  4.65 54.38                                                             
C 16.10  4.65 68.88                                                             
C 20.13  2.32 10.88                                                             
C 20.13  2.32 25.38                                                             
C 20.13  2.32 39.88                                                             
C 20.13  2.32 54.38                                                             
C 20.13  2.32 68.88                                                             
C 24.16  0.00 10.88                                                             
C 24.16  0.00 25.38                                                             
C 24.16  0.00 39.88                                                             
C 24.16  0.00 54.38                                                             
C 24.16  0.00 68.88                                                             
C  4.03 16.27 10.88                                                             
C  4.03 16.27 25.38                                                             
C  4.03 16.27 39.88                                                             
C  4.03 16.27 54.38                                                             
C  4.03 16.27 68.88                                                             
C  8.05 13.95 10.88                                                             
C  8.05 13.95 25.38                                                             
C  8.05 13.95 39.88                                                             
C  8.05 13.95 54.38                                                             
C  8.05 13.95 68.88                                                             
C 12.08 11.62 10.88                                                             
C 12.08 11.62 25.38                                                             
C 12.08 11.62 39.88                                                             
C 12.08 11.62 54.38                                                             
C 12.08 11.62 68.88                                                             
C 16.10  9.30 10.88                                                             
C 16.10  9.30 25.38                                                             
C 16.10  9.30 39.88                                                             
C 16.10  9.30 54.38                                                             
C 16.10  9.30 68.88                                                             
C 20.13  6.97 10.88                                                             
C 20.13  6.97 25.38                                                             
C 20.13  6.97 39.88                                                             
C 20.13  6.97 54.38                                                             
C 20.13  6.97 68.88                                                             
C 24.16  4.65 10.88                                                             
C 24.16  4.65 25.38                                                             
C 24.16  4.65 39.88                                                             
C 24.16  4.65 54.38                                                             
C 24.16  4.65 68.88                                                             
C 28.18  2.32 10.88                                                             
C 28.18  2.32 25.38                                                             
C 28.18  2.32 39.88                                                             
C 28.18  2.32 54.38                                                             
C 28.18  2.32 68.88                                                             
C 12.08 16.27 10.88                                                             
C 12.08 16.27 25.38                                                             
C 12.08 16.27 39.88                                                             
C 12.08 16.27 54.38                                                             
C 12.08 16.27 68.88                                                             
C 16.10 13.95 10.88                                                             
C 16.10 13.95 25.38                                                             
C 16.10 13.95 39.88                                                             
C 16.10 13.95 54.38                                                             
C 16.10 13.95 68.88                                                             
C 20.13 11.62 10.88                                                             
C 20.13 11.62 25.38                                                             
C 20.13 11.62 39.88                                                             
C 20.13 11.62 54.38                                                             
C 20.13 11.62 68.88                                                             
C 24.16  9.30 10.88                                                             
C 24.16  9.30 25.38                                                             
C 24.16  9.30 39.88                                                             
C 24.16  9.30 54.38                                                             
C 24.16  9.30 68.88                                                             
C 28.18  6.97 10.88                                                             
C 28.18  6.97 25.38                                                             
C 28.18  6.97 39.88                                                             
C 28.18  6.97 54.38                                                             
C 28.18  6.97 68.88                                                             
C 20.13 16.27 10.88                                                             
C 20.13 16.27 25.38                                                             
C 20.13 16.27 39.88                                                             
C 20.13 16.27 54.38                                                             
C 20.13 16.27 68.88                                                             
C 24.16 13.95 10.88                                                             
C 24.16 13.95 25.38                                                             
C 24.16 13.95 39.88                                                             
C 24.16 13.95 54.38                                                             
C 24.16 13.95 68.88                                                             
C 28.18 11.62 10.88                                                             
C 28.18 11.62 25.38                                                             
C 28.18 11.62 39.88                                                             
C 28.18 11.62 54.38                                                             
C 28.18 11.62 68.88                                                             
C 28.18 16.27 10.88                                                             
C 28.18 16.27 25.38                                                             
C 28.18 16.27 39.88                                                             
C 28.18 16.27 54.38                                                             
C 28.18 16.27 68.88                                                             
C  1.34  2.32  3.63                                                             
C  1.34  2.32 18.13                                                             
C  1.34  2.32 32.63                                                             
C  1.34  2.32 47.13                                                             
C  1.34  2.32 61.63                                                             
C  5.37  0.00  3.63                                                             
C  5.37  0.00 18.13                                                             
C  5.37  0.00 32.63                                                             
C  5.37  0.00 47.13                                                             
C  5.37  0.00 61.63                                                             
C  1.34  6.97  3.63                                                             
C  1.34  6.97 18.13                                                             
C  1.34  6.97 32.63                                                             
C  1.34  6.97 47.13                                                             
C  1.34  6.97 61.63                                                             
C  5.37  4.65  3.63                                                             
C  5.37  4.65 18.13                                                             
C  5.37  4.65 32.63                                                             
C  5.37  4.65 47.13                                                             
C  5.37  4.65 61.63                                                             
C  9.39  2.32  3.63                                                             
C  9.39  2.32 18.13                                                             
C  9.39  2.32 32.63                                                             
C  9.39  2.32 47.13                                                             
C  9.39  2.32 61.63                                                             
C 13.42  0.00  3.63                                                             
C 13.42  0.00 18.13                                                             
C 13.42  0.00 32.63                                                             
C 13.42  0.00 47.13                                                             
C 13.42  0.00 61.63                                                             
C  1.34 11.62  3.63                                                             
C  1.34 11.62 18.13                                                             
C  1.34 11.62 32.63                                                             
C  1.34 11.62 47.13                                                             
C  1.34 11.62 61.63                                                             
C  5.37  9.30  3.63                                                             
C  5.37  9.30 18.13                                                             
C  5.37  9.30 32.63                                                             
C  5.37  9.30 47.13                                                             
C  5.37  9.30 61.63                                                             
C  9.39  6.97  3.63                                                             
C  9.39  6.97 18.13                                                             
C  9.39  6.97 32.63                                                             
C  9.39  6.97 47.13                                                             
C  9.39  6.97 61.63                                                             
C 13.42  4.65  3.63                                                             
C 13.42  4.65 18.13                                                             
C 13.42  4.65 32.63                                                             
C 13.42  4.65 47.13                                                             
C 13.42  4.65 61.63                                                             
C 17.45  2.32  3.63                                                             
C 17.45  2.32 18.13                                                             
C 17.45  2.32 32.63                                                             
C 17.45  2.32 47.13                                                             
C 17.45  2.32 61.63                                                             
C 21.47  0.00  3.63                                                             
C 21.47  0.00 18.13                                                             
C 21.47  0.00 32.63                                                             
C 21.47  0.00 47.13                                                             
C 21.47  0.00 61.63                                                             
C  1.34 16.27  3.63                                                             
C  1.34 16.27 18.13                                                             
C  1.34 16.27 32.63                                                             
C  1.34 16.27 47.13                                                             
C  1.34 16.27 61.63                                                             
C  5.37 13.95  3.63                                                             
C  5.37 13.95 18.13                                                             
C  5.37 13.95 32.63                                                             
C  5.37 13.95 47.13                                                             
C  5.37 13.95 61.63                                                             
C  9.39 11.62  3.63                                                             
C  9.39 11.62 18.13                                                             
C  9.39 11.62 32.63                                                             
C  9.39 11.62 47.13                                                             
C  9.39 11.62 61.63                                                             
C 13.42  9.30  3.63                                                             
C 13.42  9.30 18.13                                                             
C 13.42  9.30 32.63                                                             
C 13.42  9.30 47.13                                                             
C 13.42  9.30 61.63                                                             
C 17.45  6.97  3.63                                                             
C 17.45  6.97 18.13                                                             
C 17.45  6.97 32.63                                                             
C 17.45  6.97 47.13                                                             
C 17.45  6.97 61.63                                                             
C 21.47  4.65  3.63                                                             
C 21.47  4.65 18.13                                                             
C 21.47  4.65 32.63                                                             
C 21.47  4.65 47.13                                                             
C 21.47  4.65 61.63                                                             
C 25.50  2.32  3.63                                                             
C 25.50  2.32 18.13                                                             
C 25.50  2.32 32.63                                                             
C 25.50  2.32 47.13                                                             
C 25.50  2.32 61.63                                                             
C 29.52  0.00  3.63                                                             
C 29.52  0.00 18.13                                                             
C 29.52  0.00 32.63                                                             
C 29.52  0.00 47.13                                                             
C 29.52  0.00 61.63                                                             
C  9.39 16.27  3.63                                                             
C  9.39 16.27 18.13                                                             
C  9.39 16.27 32.63                                                             
C  9.39 16.27 47.13                                                             
C  9.39 16.27 61.63                                                             
C 13.42 13.95  3.63                                                             
C 13.42 13.95 18.13                                                             
C 13.42 13.95 32.63                                                             
C 13.42 13.95 47.13                                                             
C 13.42 13.95 61.63                                                             
C 17.45 11.62  3.63                                                             
C 17.45 11.62 18.13                                                             
C 17.45 11.62 32.63                                                             
C 17.45 11.62 47.13                                                             
C 17.45 11.62 61.63                                                             
C 21.47  9.30  3.63                                                             
C 21.47  9.30 18.13                                                             
C 21.47  9.30 32.63                                                             
C 21.47  9.30 47.13                                                             
C 21.47  9.30 61.63                                                             
C 25.50  6.97  3.63                                                             
C 25.50  6.97 18.13                                                             
C 25.50  6.97 32.63                                                             
C 25.50  6.97 47.13                                                             
C 25.50  6.97 61.63                                                             
C 29.52  4.65  3.63                                                             
C 29.52  4.65 18.13                                                             
C 29.52  4.65 32.63                                                             
C 29.52  4.65 47.13                                                             
C 29.52  4.65 61.63                                                             
C 17.45 16.27  3.63                                                             
C 17.45 16.27 18.13                                                             
C 17.45 16.27 32.63                                                             
C 17.45 16.27 47.13                                                             
C 17.45 16.27 61.63                                                             
C 21.47 13.95  3.63                                                             
C 21.47 13.95 18.13                                                             
C 21.47 13.95 32.63                                                             
C 21.47 13.95 47.13                                                             
C 21.47 13.95 61.63                                                             
C 25.50 11.62  3.63                                                             
C 25.50 11.62 18.13                                                             
C 25.50 11.62 32.63                                                             
C 25.50 11.62 47.13                                                             
C 25.50 11.62 61.63                                                             
C 29.52  9.30  3.63                                                             
C 29.52  9.30 18.13                                                             
C 29.52  9.30 32.63                                                             
C 29.52  9.30 47.13                                                             
C 29.52  9.30 61.63                                                             
C 25.50 16.27  3.63                                                             
C 25.50 16.27 18.13                                                             
C 25.50 16.27 32.63                                                             
C 25.50 16.27 47.13                                                             
C 25.50 16.27 61.63                                                             
C 29.52 13.95  3.63                                                             
C 29.52 13.95 18.13                                                             
C 29.52 13.95 32.63                                                             
C 29.52 13.95 47.13                                                             
C 29.52 13.95 61.63                                                             
C  2.68  0.00 10.88                                                             
C  2.68  0.00 25.38                                                             
C  2.68  0.00 39.88                                                             
C  2.68  0.00 54.38                                                             
C  2.68  0.00 68.88                                                             
C  2.68  4.65 10.88                                                             
C  2.68  4.65 25.38                                                             
C  2.68  4.65 39.88                                                             
C  2.68  4.65 54.38                                                             
C  2.68  4.65 68.88                                                             
C  6.71  2.32 10.88                                                             
C  6.71  2.32 25.38                                                             
C  6.71  2.32 39.88                                                             
C  6.71  2.32 54.38                                                             
C  6.71  2.32 68.88                                                             
C 10.74  0.00 10.88                                                             
C 10.74  0.00 25.38                                                             
C 10.74  0.00 39.88                                                             
C 10.74  0.00 54.38                                                             
C 10.74  0.00 68.88                                                             
C  2.68  9.30 10.88                                                             
C  2.68  9.30 25.38                                                             
C  2.68  9.30 39.88                                                             
C  2.68  9.30 54.38                                                             
C  2.68  9.30 68.88                                                             
C  6.71  6.97 10.88                                                             
C  6.71  6.97 25.38                                                             
C  6.71  6.97 39.88                                                             
C  6.71  6.97 54.38                                                             
C  6.71  6.97 68.88                                                             
C 10.74  4.65 10.88                                                             
C 10.74  4.65 25.38                                                             
C 10.74  4.65 39.88                                                             
C 10.74  4.65 54.38                                                             
C 10.74  4.65 68.88                                                             
C 14.76  2.32 10.88                                                             
C 14.76  2.32 25.38                                                             
C 14.76  2.32 39.88                                                             
C 14.76  2.32 54.38                                                             
C 14.76  2.32 68.88                                                             
C 18.79  0.00 10.88                                                             
C 18.79  0.00 25.38                                                             
C 18.79  0.00 39.88                                                             
C 18.79  0.00 54.38                                                             
C 18.79  0.00 68.88                                                             
C  2.68 13.95 10.88                                                             
C  2.68 13.95 25.38                                                             
C  2.68 13.95 39.88                                                             
C  2.68 13.95 54.38                                                             
C  2.68 13.95 68.88                                                             
C  6.71 11.62 10.88                                                             
C  6.71 11.62 25.38                                                             
C  6.71 11.62 39.88                                                             
C  6.71 11.62 54.38                                                             
C  6.71 11.62 68.88                                                             
C 10.74  9.30 10.88                                                             
C 10.74  9.30 25.38                                                             
C 10.74  9.30 39.88                                                             
C 10.74  9.30 54.38                                                             
C 10.74  9.30 68.88                                                             
C 14.76  6.97 10.88                                                             
C 14.76  6.97 25.38                                                             
C 14.76  6.97 39.88                                                             
C 14.76  6.97 54.38                                                             
C 14.76  6.97 68.88                                                             
C 18.79  4.65 10.88                                                             
C 18.79  4.65 25.38                                                             
C 18.79  4.65 39.88                                                             
C 18.79  4.65 54.38                                                             
C 18.79  4.65 68.88                                                             
C 22.81  2.32 10.88                                                             
C 22.81  2.32 25.38                                                             
C 22.81  2.32 39.88                                                             
C 22.81  2.32 54.38                                                             
C 22.81  2.32 68.88                                                             
C 26.84  0.00 10.88                                                             
C 26.84  0.00 25.38                                                             
C 26.84  0.00 39.88                                                             
C 26.84  0.00 54.38                                                             
C 26.84  0.00 68.88                                                             
C  6.71 16.27 10.88                                                             
C  6.71 16.27 25.38                                                             
C  6.71 16.27 39.88                                                             
C  6.71 16.27 54.38                                                             
C  6.71 16.27 68.88                                                             
C 10.74 13.95 10.88                                                             
C 10.74 13.95 25.38                                                             
C 10.74 13.95 39.88                                                             
C 10.74 13.95 54.38                                                             
C 10.74 13.95 68.88                                                             
C 14.76 11.62 10.88                                                             
C 14.76 11.62 25.38                                                             
C 14.76 11.62 39.88                                                             
C 14.76 11.62 54.38                                                             
C 14.76 11.62 68.88                                                             
C 18.79  9.30 10.88                                                             
C 18.79  9.30 25.38                                                             
C 18.79  9.30 39.88                                                             
C 18.79  9.30 54.38                                                             
C 18.79  9.30 68.88                                                             
C 22.81  6.97 10.88                                                             
C 22.81  6.97 25.38                                                             
C 22.81  6.97 39.88                                                             
C 22.81  6.97 54.38                                                             
C 22.81  6.97 68.88                                                             
C 26.84  4.65 10.88                                                             
C 26.84  4.65 25.38                                                             
C 26.84  4.65 39.88                                                             
C 26.84  4.65 54.38                                                             
C 26.84  4.65 68.88                                                             
C 30.86  2.32 10.88                                                             
C 30.86  2.32 25.38                                                             
C 30.86  2.32 39.88                                                             
C 30.86  2.32 54.38                                                             
C 30.86  2.32 68.88                                                             
C 14.76 16.27 10.88                                                             
C 14.76 16.27 25.38                                                             
C 14.76 16.27 39.88                                                             
C 14.76 16.27 54.38                                                             
C 14.76 16.27 68.88                                                             
C 18.79 13.95 10.88                                                             
C 18.79 13.95 25.38                                                             
C 18.79 13.95 39.88                                                             
C 18.79 13.95 54.38                                                             
C 18.79 13.95 68.88                                                             
C 22.81 11.62 10.88                                                             
C 22.81 11.62 25.38                                                             
C 22.81 11.62 39.88                                                             
C 22.81 11.62 54.38                                                             
C 22.81 11.62 68.88                                                             
C 26.84  9.30 10.88                                                             
C 26.84  9.30 25.38                                                             
C 26.84  9.30 39.88                                                             
C 26.84  9.30 54.38                                                             
C 26.84  9.30 68.88                                                             
C 30.86  6.97 10.88                                                             
C 30.86  6.97 25.38                                                             
C 30.86  6.97 39.88                                                             
C 30.86  6.97 54.38                                                             
C 30.86  6.97 68.88                                                             
C 22.81 16.27 10.88                                                             
C 22.81 16.27 25.38                                                             
C 22.81 16.27 39.88                                                             
C 22.81 16.27 54.38                                                             
C 22.81 16.27 68.88                                                             
C 26.84 13.95 10.88                                                             
C 26.84 13.95 25.38                                                             
C 26.84 13.95 39.88                                                             
C 26.84 13.95 54.38                                                             
C 26.84 13.95 68.88                                                             
C 30.86 11.62 10.88                                                             
C 30.86 11.62 25.38                                                             
C 30.86 11.62 39.88                                                             
C 30.86 11.62 54.38                                                             
C 30.86 11.62 68.88                                                             
C 30.86 16.27 10.88                                                             
C 30.86 16.27 25.38                                                             
C 30.86 16.27 39.88                                                             
C 30.86 16.27 54.38                                                             
C 30.86 16.27 68.88                                                             
%ENDBLOCK POSITIONS_ABS                                                         

--------------------------------------------------------------------------------
-------------------------------- END INPUT FILE --------------------------------
--------------------------------------------------------------------------------


 
<<<<<<<<<<<<<<<<<<<<<<<<<<<<<<<<< Full system >>>>>>>>>>>>>>>>>>>>>>>>>>>>>>>>>>
<<<<<<<<<<<<<<<<<<<<<<<<<<< PAW Dataset information >>>>>>>>>>>>>>>>>>>>>>>>>>>
File: ~/pp/paw/c_pbe_abinit.paw; rc = 1.25 bohr; shape type =  3; rshape = 1.25 bohr;
  Atomic number:  6;  ionic charge:  4.000000
    Partial Wave 1: l = 0
    Partial Wave 2: l = 0
    Partial Wave 3: l = 1
    Partial Wave 4: l = 1
  Core charge supplied for Nonlinear Core Corrections
<<<<<<<<<<<<<<<<<<<<<<<<<<<<<<<<<<<<<<< >>>>>>>>>>>>>>>>>>>>>>>>>>>>>>>>>>>>>>>

-------------------------- Atom counting information ---------------------------
Symbol    Natoms    Nngwfs    Nprojs
  C        640      2560      5120
.......   ......    ......    ......
Totals:    640      2560      5120
--------------------------------------------------------------------------------

=============================== PSINC grid sizes ===============================
                      Simulation cell:   63 x  35 x 143
                              FFT-box:   63 x  35 x 117
                                  PPD:    7 x   5 x   1
Grid space d1=  0.511269841270a0 (KE cutoff=  29.06054Eh = 790.77748eV)
Grid space d2=  0.531142857143a0 (KE cutoff=  26.92659Eh = 732.70972eV)
Grid space d3=  0.507062937063a0 (KE cutoff=  29.54475Eh = 803.95346eV)
================================================================================
  
WARNING in cell_grid_distribute:
Average of less than one 23-slab per node, so workload cannot be
equally balanced between nodes.

********************* Fourier parallelisation information **********************
       Coarse grid (whole simulation cell) dimensions:     63    35   143
          Real-space ('12') slabs/node (min max mean):      3     4     3
         Recip-space ('23') slabs/node (min max mean):      0     1     0
********************************************************************************

********************* Fourier parallelisation information **********************
       Double grid (whole simulation cell) dimensions:    126    70   286
          Real-space ('12') slabs/node (min max mean):      7     8     7
         Recip-space ('23') slabs/node (min max mean):      1     2     1
********************************************************************************

Atom SCF Calculation for C  : Z (AE atom) =   6 : Z (PS atom) =   4
Config String: 2s2 2p2
Orbitals (num,occ):  2     2.00 2.00
Orbitals   (num,l):  2        0    1
Real-space Grid (nr,dr,rmax): 1293    0.0069659443    9.0000000000
Spherical Bessel Basis (nsws,lmax,cutoff):   37    2  161.4736382572
Confining potential (l,width,scale):  0    3.0000000000  100.0000000000
Confining potential (l,width,scale):  1    3.0000000000  100.0000000000
  1         -5.4283124456   -1.2935102156    4.5135257941   -1.5923561795
  2         -5.4241534249   -1.3636937911    4.4427183619   -1.5694122055
  3         -5.4326289545   -1.3865748334    4.4195613881   -1.5634604620
  4         -5.4368073263   -1.3933479911    4.4127833993   -1.5619680687
  5         -5.4388652800   -1.3969668505    4.4091714945   -1.5612108736
  6         -5.4399077146   -1.3988848872    4.4072644158   -1.5608235486
  7         -5.4404434041   -1.3998980658    4.4062615348   -1.5606243010
  8         -5.4407208401   -1.4004325328    4.4057350952   -1.5605214507
  9         -5.4408651553   -1.4007143559    4.4054589454   -1.5604682523
 10         -5.4409404127   -1.4008629743    4.4053141024   -1.5604407028
 11         -5.4409797152   -1.4009413770    4.4052381126   -1.5604264250
 12         -5.4410002582   -1.4009827603    4.4051982277   -1.5604190215
 13         -5.4410110012   -1.4010046176    4.4051772812   -1.5604151811
 14         -5.4410166211   -1.4010161701    4.4051662735   -1.5604131883
 15         -5.4410195614   -1.4010222805    4.4051604845   -1.5604121539
 16         -5.4410211001   -1.4010255150    4.4051574379   -1.5604116169
 17         -5.4410219052   -1.4010272285    4.4051558332   -1.5604113379
 18         -5.4410223266   -1.4010281369    4.4051549874   -1.5604111930
 19         -5.4410225472   -1.4010286190    4.4051545411   -1.5604111177
 20         -5.4410226626   -1.4010288749    4.4051543055   -1.5604110786
 21         -5.4410227231   -1.4010290110    4.4051541810   -1.5604110582
Atom SCF converged after  21 iterations to a total energy of     -5.44102272

Determining parallel strategy ...
... using space-filling curve
... NGWF load balancing: max     64;  min     64;  average     64
... Projector load balancing: max    128;  min    128;  average    128
... done
Calculating Ewald energy ...
              Ewald: real-space energy =    9488.921918
        Ewald: reciprocal-space energy =       0.489429
         Ewald: (sum_charge)**2 Energy =   10818.505505
         Ewald: (sum_charge**2) Energy =     855.277957
                          Ewald Energy =   -2184.372114
Basis initialisation ...... NGWF spheres initialised
... Projector spheres initialised
... NGWF tight boxes initialised
... Projector tight boxes initialised
... Tight-boxes gathered
... NGWF basis size (local,global):     692372  27895264
... PAW projector initialisation
... done

============================= Charge Augmentation ==============================
                           Aug box size:   11 x  11 x  11
================================================================================

========================== Sparse matrix information ===========================
                        Overlap matrix filling:  40.31%
                        Density kernel filling: 100.00%
              NGWF-Proj overlap matrix filling:  12.19%
                    Aug Overlap matrix filling:  47.03%
                    Hamiltonian matrix filling:  47.03%
                  NGWF diagonal matrix filling:   0.16%
                             KS matrix filling: 100.00% 
                           KSKS matrix filling: 100.00% 
================================================================================

Sparse matrix initialisation ... done
NGWF initialisation ...... done
============ Calculation of NGWF S^-1 using Hotelling algorithm ================ 
         Iteration  |  Frobenius norm and Maximum abs value    (of I-S*S_n^-1)   
               1       0.48914394E+02     0.97409798E+00
               2       0.47591417E+02     0.95006966E+00
               3       0.45640448E+02     0.90679979E+00
               4       0.43154917E+02     0.83508249E+00
               5       0.40209284E+02     0.72975295E+00
               6       0.36840572E+02     0.67098217E+00
               7       0.33404707E+02     0.62501560E+00
               8       0.30117247E+02     0.58604349E+00
               9       0.26497716E+02     0.54054565E+00
              10       0.21853402E+02     0.46744749E+00
              11       0.15836919E+02     0.35296789E+00
              12       0.90791819E+01     0.20665780E+00
              13       0.34418880E+01     0.76131742E-01
              14       0.59149080E+00     0.11961718E-01
              15       0.20687069E-01     0.36312601E-03
              16       0.32652691E-04     0.42966473E-06
              17       0.12392518E-09     0.98621111E-12
================================================================================
Calculating core density ...
================================= Core Density =================================
               Core den box size:   21 x  21 x  21
================================================================================
 ... done
Up spin density kernel initialisation ...... done

Writing density kernel to file "3.8369616_GO_manual_4x64graphite.dkn" ... done

>>> Optimising kernel for current NGWFs:

--------------------------- Ensemble-DFT optimisation --------------------------
Running ScaLAPACK on   40 processor(s).

--------------------------------------------------------------------------------
  Iter                              Commutator    Free_energy(A=E-TS)     DeltaA
#    0                          0.000029770491   -3649.38824666769324  -3.65E+03

Step                       =       0.381966011250
Energy                     =   -3649.388219161309
Entropy (-TS)              =      -0.000027506465
Free energy (A=E-TS)       =   -3649.388246667693
Est. 0K Energy 0.5*(E+A)   =   -3649.388232914501
Residual Non-orthogonality =       0.000000000000
Residual N_electrons       =       0.000000000082

Spin          Integrated_Ne            Fermi_level     Delta_Fermi_level
   1      2559.999999999461         0.151327769708              1.51E-01

                           Spin 1          
     Orb      H-eigenvalues     Occupancies
       1 |    -0.5698293211    1.0000000000 | 
                          ------
    1276 |     0.1160549971    0.9999854552 | 
    1277 |     0.1166575384    0.9999824070 | 
    1278 |     0.1166698809    0.9999823383 | 
    1279 |     0.1166823408    0.9999822687 | 
    1280 |     0.1172857481    0.9999785469 | 
                 - Gap at zero temperature -
    1281 |     0.1875398772    0.0000108116 | 
    1282 |     0.1875497108    0.0000107781 | 
    1283 |     0.1875564831    0.0000107551 | 
    1284 |     0.1876288420    0.0000105121 | 
    1285 |     0.1876461963    0.0000104547 | 
                          ------
    2560 |     0.9838272973    0.0000000000 | 

                       |  Abs_value |  Threshold | Converged
     Delta_Free_energy |   3.65E+03 |   1.00E-06 |        No
     Delta_Energy      |   3.65E+03 |   1.00E-04 |        No
     Delta_Entropy     |   2.75E-05 |   1.00E-04 |       Yes
     Commutator        |   2.98E-05 |   1.00E-05 |        No
     Delta_Fermi_level |   1.51E-01 |   1.00E-03 |        No

  Line search of the free energy minimum:
  Step_type        Step             Free_energy   Predicted_free_energy
.   Initial    0.000000    -3649.38824666769324
.    Trial1    0.381966    -3649.38925281323418
.    Trial2    0.618034    -3649.38939493257203
. Quadratic    0.591549    -3649.38939722047098    -3649.38939723893236

--------------------------------------------------------------------------------
  Iter                              Commutator    Free_energy(A=E-TS)     DeltaA
#    1                          0.000017384517   -3649.38939722047098  -1.15E-03

Step                       =       0.591549131589
Energy                     =   -3649.389369368274
Entropy (-TS)              =      -0.000027852486
Free energy (A=E-TS)       =   -3649.389397220471
Est. 0K Energy 0.5*(E+A)   =   -3649.389383294372
Residual Non-orthogonality =       0.000000000000
Residual N_electrons       =       0.000000000289

Spin          Integrated_Ne            Fermi_level     Delta_Fermi_level
   1      2559.999999998063         0.149016303977             -2.31E-03

                           Spin 1          
     Orb      H-eigenvalues     Occupancies
       1 |    -0.5738162074    1.0000000000 | 
                          ------
    1276 |     0.1138276682    0.9999850636 | 
    1277 |     0.1142993455    0.9999826647 | 
    1278 |     0.1143015907    0.9999826524 | 
    1279 |     0.1144202361    0.9999819902 | 
    1280 |     0.1148947775    0.9999790788 | 
                 - Gap at zero temperature -
    1281 |     0.1851209962    0.0000111846 | 
    1282 |     0.1851281351    0.0000111594 | 
    1283 |     0.1851450117    0.0000111001 | 
    1284 |     0.1852114353    0.0000108697 | 
    1285 |     0.1852380427    0.0000107788 | 
                          ------
    2560 |     0.9796931009    0.0000000000 | 

                       |  Abs_value |  Threshold | Converged
     Delta_Free_energy |   1.15E-03 |   1.00E-06 |        No
     Delta_Energy      |   1.15E-03 |   1.00E-04 |        No
     Delta_Entropy     |   3.46E-07 |   1.00E-04 |       Yes
     Commutator        |   1.74E-05 |   1.00E-05 |        No
     Delta_Fermi_level |   2.31E-03 |   1.00E-03 |        No

  Line search of the free energy minimum:
  Step_type        Step             Free_energy   Predicted_free_energy
.   Initial    0.000000    -3649.38939722047098
.    Trial1    0.591549    -3649.38917826745819
.    Trial2    0.225952    -3649.38968119856327
. Quadratic    0.254187    -3649.38968474349713    -3649.38968474640069

--------------------------------------------------------------------------------
  Iter                              Commutator    Free_energy(A=E-TS)     DeltaA
#    2                          0.000009036485   -3649.38968474349713  -2.88E-04

Step                       =       0.254187269665
Energy                     =   -3649.389656834794
Entropy (-TS)              =      -0.000027908328
Free energy (A=E-TS)       =   -3649.389684743497
Est. 0K Energy 0.5*(E+A)   =   -3649.389670789145
Residual Non-orthogonality =       0.000000000000
Residual N_electrons       =      -0.000000000375

Spin          Integrated_Ne            Fermi_level     Delta_Fermi_level
   1      2560.000000002524         0.148614817886             -4.01E-04

                           Spin 1          
     Orb      H-eigenvalues     Occupancies
       1 |    -0.5745165285    1.0000000000 | 
                          ------
    1276 |     0.1133984585    0.9999851938 | 
    1277 |     0.1139210113    0.9999825375 | 
    1278 |     0.1139229546    0.9999825268 | 
    1279 |     0.1139880495    0.9999821639 | 
    1280 |     0.1145132403    0.9999789466 | 
                 - Gap at zero temperature -
    1281 |     0.1847344895    0.0000111318 | 
    1282 |     0.1847417058    0.0000111065 | 
    1283 |     0.1847584548    0.0000110479 | 
    1284 |     0.1848271898    0.0000108107 | 
    1285 |     0.1848538461    0.0000107201 | 
                          ------
    2560 |     0.9789648108    0.0000000000 | 

                       |  Abs_value |  Threshold | Converged
     Delta_Free_energy |   2.88E-04 |   1.00E-06 |        No
     Delta_Energy      |   2.87E-04 |   1.00E-04 |        No
     Delta_Entropy     |   5.58E-08 |   1.00E-04 |       Yes
     Commutator        |   9.04E-06 |   1.00E-05 |       Yes
     Delta_Fermi_level |   4.01E-04 |   1.00E-03 |       Yes

  Line search of the free energy minimum:
  Step_type        Step             Free_energy   Predicted_free_energy
.   Initial    0.000000    -3649.38968474349713
.    Trial1    0.254187    -3649.38975780780584
.    Trial2    0.539062    -3649.38976571730018
. Quadratic    0.425443    -3649.38977193459868    -3649.38977193601022

--------------------------------------------------------------------------------
  Iter                              Commutator    Free_energy(A=E-TS)     DeltaA
#    3                          0.000006145881   -3649.38977193459868  -8.72E-05

Step                       =       0.425443102224
Energy                     =   -3649.389743962008
Entropy (-TS)              =      -0.000027972582
Free energy (A=E-TS)       =   -3649.389771934599
Est. 0K Energy 0.5*(E+A)   =   -3649.389757948303
Residual Non-orthogonality =       0.000000000000
Residual N_electrons       =      -0.000000000010

Spin          Integrated_Ne            Fermi_level     Delta_Fermi_level
   1      2560.000000000065         0.148111656338             -5.03E-04

                           Spin 1          
     Orb      H-eigenvalues     Occupancies
       1 |    -0.5753811185    1.0000000000 | 
                          ------
    1276 |     0.1128820621    0.9999852555 | 
    1277 |     0.1134276206    0.9999824836 | 
    1278 |     0.1134292506    0.9999824745 | 
    1279 |     0.1134681535    0.9999822579 | 
    1280 |     0.1140160761    0.9999789067 | 
                 - Gap at zero temperature -
    1281 |     0.1842335859    0.0000111239 | 
    1282 |     0.1842408828    0.0000110983 | 
    1283 |     0.1842575806    0.0000110399 | 
    1284 |     0.1843282162    0.0000107964 | 
    1285 |     0.1843548718    0.0000107059 | 
                          ------
    2560 |     0.9780769532    0.0000000000 | 

                       |  Abs_value |  Threshold | Converged
     Delta_Free_energy |   8.72E-05 |   1.00E-06 |        No
     Delta_Energy      |   8.71E-05 |   1.00E-04 |       Yes
     Delta_Entropy     |   6.43E-08 |   1.00E-04 |       Yes
     Commutator        |   6.15E-06 |   1.00E-05 |       Yes
     Delta_Fermi_level |   5.03E-04 |   1.00E-03 |       Yes

  Line search of the free energy minimum:
  Step_type        Step             Free_energy   Predicted_free_energy
.   Initial    0.000000    -3649.38977193459868
.    Trial1    0.425443    -3649.38979350463114
.    Trial2    0.644904    -3649.38973254054372
. Quadratic    0.262490    -3649.38980703070592    -3649.38980703012385

--------------------------------------------------------------------------------
  Iter                              Commutator    Free_energy(A=E-TS)     DeltaA
#    4                          0.000003747155   -3649.38980703070592  -3.51E-05

Step                       =       0.262489813791
Energy                     =   -3649.389779036699
Entropy (-TS)              =      -0.000027994194
Free energy (A=E-TS)       =   -3649.389807030706
Est. 0K Energy 0.5*(E+A)   =   -3649.389793033703
[...]
 C   275 -- C   555       -0.10      5.37000
 C   274 -- C   554       -0.10      5.37000
 C   273 -- C   553       -0.10      5.37000
 C   272 -- C   552       -0.10      5.37000
 C   271 -- C   551       -0.10      5.37000
 C   270 -- C   550       -0.10      5.37000
 C   269 -- C   549       -0.10      5.37000
 C   268 -- C   548       -0.10      5.37000
 C   267 -- C   547       -0.10      5.37000
 C   266 -- C   546       -0.10      5.37000
 C   130 -- C   465       -0.10      5.37000
 C   129 -- C   464       -0.10      5.37000
 C   128 -- C   463       -0.10      5.37000
 C   127 -- C   462       -0.10      5.37000
 C   126 -- C   461       -0.10      5.37000
 C   240 -- C   525       -0.10      5.37000
 C   239 -- C   524       -0.10      5.37000
 C   238 -- C   523       -0.10      5.37000
 C   237 -- C   522       -0.10      5.37000
 C   236 -- C   521       -0.10      5.37000
 C    23 -- C   478       -0.09      5.37202
 C    49 -- C   469       -0.09      5.37202
 C    48 -- C   468       -0.09      5.37202
 C    47 -- C   467       -0.09      5.37202
 C    22 -- C   477       -0.09      5.37202
 C    46 -- C   466       -0.09      5.37202
 C    21 -- C   476       -0.09      5.37202
 C    25 -- C   480       -0.09      5.37202
 C    24 -- C   479       -0.09      5.37202
 C    50 -- C   470       -0.09      5.37202
 C    24 -- C   449       -0.09      5.37202
 C     6 -- C   416       -0.09      5.37202
 C    23 -- C   448       -0.09      5.37202
 C    22 -- C   447       -0.09      5.37202
 C    10 -- C   470       -0.09      5.37202
 C     5 -- C   450       -0.09      5.37202
 C    21 -- C   446       -0.09      5.37202
 C    10 -- C   420       -0.09      5.37202
 C     9 -- C   469       -0.09      5.37202
 C     9 -- C   419       -0.09      5.37202
 C     8 -- C   468       -0.09      5.37202
 C     4 -- C   449       -0.09      5.37202
 C     8 -- C   418       -0.09      5.37202
 C   285 -- C   580       -0.09      5.37202
 C   284 -- C   579       -0.09      5.37202
 C   283 -- C   578       -0.09      5.37202
 C   282 -- C   577       -0.09      5.37202
 C   281 -- C   576       -0.09      5.37202
 C     2 -- C   447       -0.09      5.37202
 C     7 -- C   467       -0.09      5.37202
 C   260 -- C   605       -0.09      5.37202
 C   259 -- C   604       -0.09      5.37202
 C   258 -- C   603       -0.09      5.37202
 C   257 -- C   602       -0.09      5.37202
 C   256 -- C   601       -0.09      5.37202
 C     7 -- C   417       -0.09      5.37202
 C     1 -- C   446       -0.09      5.37202
 C     6 -- C   466       -0.09      5.37202
 C    25 -- C   450       -0.09      5.37202
 C     3 -- C   448       -0.09      5.37202
 C   219 -- C   569       -0.09      5.37202
 C   218 -- C   568       -0.09      5.37202
 C   217 -- C   567       -0.09      5.37202
 C   216 -- C   566       -0.09      5.37202
 C   250 -- C   540       -0.09      5.37202
 C   249 -- C   539       -0.09      5.37202
 C   248 -- C   538       -0.09      5.37202
 C   247 -- C   537       -0.09      5.37202
 C   246 -- C   536       -0.09      5.37202
 C   220 -- C   570       -0.09      5.37202
 C   205 -- C   550       -0.09      5.37202
 C   204 -- C   549       -0.09      5.37202
 C   203 -- C   548       -0.09      5.37202
 C   202 -- C   547       -0.09      5.37202
 C   201 -- C   546       -0.09      5.37202
 C    95 -- C   365       -0.10      5.37202
 C    94 -- C   364       -0.10      5.37202
 C    93 -- C   363       -0.10      5.37202
 C    92 -- C   362       -0.10      5.37202
 C    91 -- C   361       -0.10      5.37202
 C    65 -- C   395       -0.10      5.37202
 C    64 -- C   394       -0.10      5.37202
 C    63 -- C   393       -0.10      5.37202
 C    30 -- C   355       -0.10      5.37202
 C    62 -- C   392       -0.10      5.37202
 C    61 -- C   391       -0.10      5.37202
 C    29 -- C   354       -0.10      5.37202
 C   260 -- C   550       -0.09      5.37202
 C   259 -- C   549       -0.09      5.37202
 C    28 -- C   353       -0.10      5.37202
 C   258 -- C   548       -0.09      5.37202
 C   257 -- C   547       -0.09      5.37202
 C   256 -- C   546       -0.09      5.37202
 C    27 -- C   352       -0.10      5.37202
 C    26 -- C   351       -0.10      5.37202
 C    55 -- C   335       -0.10      5.37202
 C    54 -- C   334       -0.09      5.37202
 C    53 -- C   333       -0.10      5.37202
 C   230 -- C   580       -0.09      5.37202
 C   230 -- C   525       -0.09      5.37202
 C   229 -- C   579       -0.09      5.37202
 C   229 -- C   524       -0.09      5.37202
 C   228 -- C   578       -0.09      5.37202
 C    52 -- C   332       -0.10      5.37202
 C   228 -- C   523       -0.09      5.37202
 C   227 -- C   577       -0.09      5.37202
 C   227 -- C   522       -0.09      5.37202
 C   226 -- C   576       -0.09      5.37202
 C   226 -- C   521       -0.09      5.37202
 C    51 -- C   331       -0.09      5.37202
 C   220 -- C   515       -0.09      5.37202
 C   219 -- C   514       -0.09      5.37202
 C   218 -- C   513       -0.09      5.37202
 C   217 -- C   512       -0.09      5.37202
 C   216 -- C   511       -0.09      5.37202
 C   195 -- C   540       -0.09      5.37202
 C   195 -- C   500       -0.09      5.37202
 C   194 -- C   539       -0.09      5.37202
 C   194 -- C   499       -0.09      5.37202
 C   193 -- C   538       -0.09      5.37202
 C   193 -- C   498       -0.09      5.37202
 C   192 -- C   537       -0.09      5.37202
 C   192 -- C   497       -0.09      5.37202
 C   191 -- C   536       -0.09      5.37202
 C   191 -- C   496       -0.09      5.37202
 C   180 -- C   515       -0.09      5.37202
 C   179 -- C   514       -0.09      5.37202
 C   178 -- C   513       -0.09      5.37202
 C   177 -- C   512       -0.09      5.37202
 C   176 -- C   511       -0.09      5.37202
 C   150 -- C   440       -0.09      5.37202
 C   149 -- C   439       -0.09      5.37202
 C   148 -- C   438       -0.09      5.37202
 C   147 -- C   437       -0.09      5.37202
 C   146 -- C   436       -0.09      5.37202
 C   135 -- C   460       -0.09      5.37202
 C   134 -- C   459       -0.09      5.37202
 C   133 -- C   458       -0.09      5.37202
 C   132 -- C   457       -0.09      5.37202
 C   131 -- C   456       -0.09      5.37202
 C    11 -- C   331       -0.09      5.37202
 C    95 -- C   425       -0.09      5.37202
 C    94 -- C   424       -0.09      5.37202
 C    93 -- C   423       -0.09      5.37202
 C    92 -- C   422       -0.09      5.37202
 C    91 -- C   421       -0.09      5.37202
 C    85 -- C   355       -0.09      5.37202
 C    40 -- C   365       -0.09      5.37202
 C    84 -- C   354       -0.09      5.37202
 C    83 -- C   353       -0.09      5.37202
 C    82 -- C   352       -0.09      5.37202
 C    39 -- C   364       -0.09      5.37202
 C    81 -- C   351       -0.09      5.37202
 C    38 -- C   363       -0.09      5.37202
 C    37 -- C   362       -0.09      5.37202
 C    36 -- C   361       -0.09      5.37202
 C    15 -- C   335       -0.10      5.37202
 C    65 -- C   345       -0.09      5.37202
 C    64 -- C   344       -0.09      5.37202
 C    63 -- C   343       -0.09      5.37202
 C    30 -- C   325       -0.09      5.37202
 C    62 -- C   342       -0.09      5.37202
 C    14 -- C   334       -0.09      5.37202
 C    61 -- C   341       -0.09      5.37202
 C    29 -- C   324       -0.09      5.37202
 C    28 -- C   323       -0.09      5.37202
 C    13 -- C   333       -0.09      5.37202
 C    27 -- C   322       -0.09      5.37202
 C   120 -- C   395       -0.09      5.37202
 C    55 -- C   385       -0.09      5.37202
 C   119 -- C   394       -0.09      5.37202
 C   118 -- C   393       -0.09      5.37202
 C   117 -- C   392       -0.09      5.37202
 C    54 -- C   384       -0.09      5.37202
 C    26 -- C   321       -0.09      5.37202
 C   116 -- C   391       -0.09      5.37202
 C    53 -- C   383       -0.09      5.37202
 C    12 -- C   332       -0.09      5.37202
 C    52 -- C   382       -0.09      5.37202
 C    51 -- C   381       -0.09      5.37202
 C   106 -- C   436       -0.09      5.37202
 C   106 -- C   376       -0.09      5.37202
 C    80 -- C   410       -0.09      5.37202
 C    79 -- C   409       -0.09      5.37202
 C    78 -- C   408       -0.09      5.37202
 C    77 -- C   407       -0.09      5.37202
 C    76 -- C   406       -0.09      5.37202
 C   135 -- C   410       -0.09      5.37202
 C   134 -- C   409       -0.09      5.37202
 C   133 -- C   408       -0.09      5.37202
 C   132 -- C   407       -0.09      5.37202
 C   131 -- C   406       -0.09      5.37202
 C   110 -- C   440       -0.09      5.37202
 C   110 -- C   380       -0.09      5.37202
 C   109 -- C   439       -0.09      5.37202
 C   109 -- C   379       -0.09      5.37202
 C   108 -- C   438       -0.09      5.37202
 C   108 -- C   378       -0.09      5.37202
 C   107 -- C   437       -0.09      5.37202
 C   107 -- C   377       -0.09      5.37202
 C   215 -- C   635       -0.10      5.38000
 C   214 -- C   634       -0.10      5.38000
 C   213 -- C   633       -0.10      5.38000
 C   212 -- C   632       -0.10      5.38000
 C   211 -- C   631       -0.10      5.38000
 C   190 -- C   620       -0.10      5.38000
 C   189 -- C   619       -0.10      5.38000
 C   188 -- C   618       -0.10      5.38000
 C   187 -- C   617       -0.10      5.38000
 C   186 -- C   616       -0.10      5.38000
 C   175 -- C   595       -0.10      5.38000
 C   174 -- C   594       -0.10      5.38000
 C   173 -- C   593       -0.10      5.38000
 C   172 -- C   592       -0.10      5.38000
 C   171 -- C   591       -0.10      5.38000
 C   245 -- C   640       -0.10      5.38000
 C   244 -- C   639       -0.10      5.38000
 C   243 -- C   638       -0.10      5.38000
 C   242 -- C   637       -0.10      5.38000
 C   241 -- C   636       -0.10      5.38000
==================================================


=================== Orbital energy and occupancy information ===================

      Total number of orbitals:    2560
        Occupancy sum (kernel):    1280.000000000
   Occupancy sum (eigenvalues):    1280.000000000
                 HOMO-LUMO gap:       0.067047615 Eh
                 Mid-gap level:       0.207787662 Eh

                        Orbital | Energy (Eh) | Occupancy
                            1    -0.511412041   1.0000000
                        .......   ...........   .........
                         1271     0.170430996   0.9999886
                         1272     0.170474453   0.9999884
                         1273     0.170902177   0.9999867
                         1274     0.170945663   0.9999865
                         1275     0.172952296   0.9999746
                         1276     0.172953014   0.9999746
                         1277     0.173422999   0.9999706
                         1278     0.173423706   0.9999706
                         1279     0.173794675   0.9999669
                         1280     0.174263854   0.9999616
                        ....... -- gap at 0K -- .........
                         1281     0.241311469   0.0000164
                         1282     0.241344330   0.0000162
                         1283     0.241558615   0.0000151
                         1284     0.241591800   0.0000150
                         1285     0.241667597   0.0000147
                         1286     0.241677345   0.0000146
                         1287     0.241870265   0.0000137
                         1288     0.241896237   0.0000137
                         1289     0.241906286   0.0000135
                         1290     0.241924286   0.0000135
                        .......   ...........   .........
                         2560     1.099119494   0.0000000

================================================================================

===================== Writing canonical molecular orbitals =====================
| Orbital  Energy (eV)  Norm     |
| HOMO      4.74196075  1.000000 | Writing "3.8369616_GO_manual_4x64graphite_HOMO.cube" ... done
Writing "3.8369616_GO_manual_4x64graphite_HOMO.dx" ... done
| LUMO      6.56641920  1.000000 | Writing "3.8369616_GO_manual_4x64graphite_LUMO.cube" ... done
Writing "3.8369616_GO_manual_4x64graphite_LUMO.dx" ... done
================================================================================
 
===================== Density of States (DOS) calculation ======================
Writing "3.8369616_GO_manual_4x64graphite_DOS.txt" ...  done
================================================================================
 
Writing bands to file "3.8369616_GO_manual_4x64graphite.val_bands" ... done
 
================ Projected Density of States (pDOS) calculation ================
 
Constructing AM resolved functions  ...... done
Writing NGWF plot files in formats: CUBE DX ...  done
 
Performing overlap integrals ...  done
 
Computing pDOS weights ...  done
 
All bands spilling parameter =   2.98 %
Occupancy-weighted spilling parameter =   0.94 %
 
 => Outputting data for OptaDOS <=
 
Writing pDOS weights to file "3.8369616_GO_manual_4x64graphite.val_pdos_bin" ... done
 
Writing band gradients to file "3.8369616_GO_manual_4x64graphite.val_dome_bin" ... done
 
Writing Castep output cell file to "3.8369616_GO_manual_4x64graphite-out.cell" ... done
 
 => Computing Gaussian smeared pDOS <= 
Writing "3.8369616_GO_manual_4x64graphite_PDOS.txt" ...  done
 
 => Computing Occupancy-weighted Gaussian smeared pDOS <= 
Writing "3.8369616_GO_manual_4x64graphite_occ_PDOS.txt" ...  done
  => Band centres: 
 S band centre of group 1:  -13.763372 eV
 P band centre of group 1:   -6.640112 eV
  Band centres done. <=
  => Integrated number of electrons in each AM band: 
 S num electrons of group 1:  574.034421
 P num electrons of group 1: 1961.967356
  Integrated number of electrons done. <=
================================================================================

------------------------------ TIMING INFORMATION ------------------------------
AVERAGE TIME:    2945.422s on     40 node(s)                                    
TOTAL TIME:      2945.422s on     40 node(s)                                    
================= AVERAGE TIMINGS FROM ALL NODES (CUMULATIVE) ==================
|| TAG                                    #calls    cpu time   %total  Gflops ||
|| work_imbalance                       :     1        0.00s   0.000%  ------ ||
|| paw_tcore_hartree_on_grid            :     1        0.00s   0.000%  ------ ||
|| paw_tcore_density                    :     1        0.01s   0.000%  ------ ||
|| paw_sphere_density_on_grid           :     1        0.01s   0.000%  ------ ||
|| sparse_set_to_garbage                :   135        0.02s   0.001%  ------ ||
|| paw_dij_hartree                      :   264        0.03s   0.001%  ------ ||
|| pseudo_make_structure_factor         :     1        0.06s   0.002%  ------ ||
|| basis_extract_function_from_box      :  1536        0.07s   0.002%  ------ ||
|| paw_species_calc_proj_prec_mat       :     1        0.13s   0.004%  ------ ||
|| paw_dataset_init                     :     1        0.15s   0.005%  ------ ||
|| density_init_guess_real              :     1        0.17s   0.006%  ------ ||
|| ngwfs_initialise_from_radial         :     2        0.66s   0.022%  ------ ||
|| restart_kernel_write                 :    13        0.68s   0.023%  ------ ||
|| sparse_init                          :     1        0.92s   0.031%  ------ ||
|| dense_normal_eigensolve              :     1        0.99s   0.034%  ------ ||
|| hartree_on_grid                      :   198        1.04s   0.035%  ------ ||
|| projectors_init_fftbox_recip         :   121        2.35s   0.080%  ------ ||
|| ewald_calculate_energy               :     1        3.39s   0.115%  ------ ||
|| fourier_apply_box_pair               :  2272        3.76s   0.128% 560.002 ||
|| basis_copy_function_to_box           : 19008        4.10s   0.139%  ------ ||
|| augmentation_screen_dij              :   203        4.44s   0.151%  ------ ||
|| sparse_embed_hotelling_invert_embed  :    23        6.49s   0.220%  ------ ||
|| sw_init                              :     1        6.73s   0.229%  ------ ||
|| ngwf_gradient_coeffs                 :    12        8.48s   0.288%  ------ ||
|| sparse_trace                         :  2382       10.59s   0.360%  ------ ||
|| fourier_apply_cell_backward          :  6109       12.93s   0.439%  64.048 ||
|| fourier_apply_cell_forward           :  5714       14.67s   0.498%  52.797 ||
|| cell_grid_extract_box_real           :  8060       15.52s   0.527%  ------ ||
|| cell_grid_deposit_box_real           : 25520       16.74s   0.568%  ------ ||
|| paw_dij_xc                           :   264       18.95s   0.643%  ------ ||
|| aug_nonlocal_mat                     :   252       27.13s   0.921%  ------ ||
|| density_fftbox_deposit_to_cell       : 12672       33.66s   1.143%  ------ ||
|| augmentation_density_on_grid         :   198       35.26s   1.197%  ------ ||
|| function_ops_brappd_ketppd           :    48       44.71s   1.518%  ------ ||
|| hamiltonian_energy_components        :     3       46.30s   1.572%  ------ ||
|| projectors_func_ovlp_box             :    24       53.44s   1.814%  ------ ||
|| eigenstates_pdos                     :     1       53.57s   1.819%  ------ ||
|| eigenstates_calculate                :     1       57.96s   1.968%  ------ ||
|| xc_energy_potential                  :   197       62.26s   2.114%  ------ ||
|| nlxc_vdw_energy                      :   394       65.16s   2.212%  ------ ||
|| integrals_kinetic                    :    23       74.06s   2.514%  ------ ||
|| dense_eigensolve                     :   171       86.69s   2.943%  ------ ||
|| sparse_product                       :  2443       97.72s   3.318%  ------ ||
|| potential_apply_to_ngwf_batch        :   252       98.90s   3.358%  ------ ||
|| properties_calculate                 :     1      106.46s   3.614%  ------ ||
|| restart_ngwfs_tightbox_output        :    11      116.25s   3.947%  ------ ||
|| basis_dot_function_with_box          : 5.880M     161.66s   5.488%  ------ ||
|| fourier_apply_box                    : 60064      186.41s   6.329% 976.310 ||
|| edft_diag_ngwf_ham                   :   170      191.18s   6.491%  ------ ||
|| integrals_locpot_mat_els_batch       :   252      208.81s   7.089%  ------ ||
|| projectors_gradient_batch            :    48      218.11s   7.405%  ------ ||
|| density_fftbox_interpolate_multiply  : 12672      245.60s   8.338%  ------ ||
|| projectors_grad_precond_batch        :    48      299.84s  10.180%  ------ ||
|| integrals_locpot_dbl_grid            :    63      308.75s  10.482%  ------ ||
|| density_batch_interp_deposit         :   792      310.28s  10.534%  ------ ||
|| edft_apply_smearing_operator         :   170      370.04s  12.563%  ------ ||
|| basis_add_function_to_box            : 16.25M     432.47s  14.683%  ------ ||
|| ngwf_gradient_build_batch            :    48      554.38s  18.822%  ------ ||
|| density_batch_row_sums               :   792      587.30s  19.939%  ------ ||
|| ngwf_gradient_batch                  :    48      727.74s  24.707%  ------ ||
|| ngwf_gradient_lnv                    :    12      754.94s  25.631%  ------ ||
|| density_on_dbl_grid                  :   198      908.66s  30.850%  ------ ||
|| hamiltonian_lhxc_calculate           :   193      988.65s  33.566%  ------ ||
|| edft_calculate                       :    12     1645.37s  55.862%  ------ ||
|| ngwf_cg_optimise                     :     1     2818.65s  95.696%  ------ ||
|| total_time                           :     1     2945.42s 100.000%  ------ ||
================================================================================
Overhead of generating timer report: 
- 0 ms averaging over threads,
- 5 ms ensuring consistency across MPI ranks,
- 0 ms printing in order.

Job completed: 29-02-2020 13:13 (-0000)

