 +---------------------------------------------------------------+
 |                                                               |
 |        ####### #     # ####### ####### ####### ######         |
 |        #     # ##    # #          #    #       #     #        |
 |        #     # # #   # #          #    #       #     #        |
 |        #     # #  #  # #####      #    #####   ######         |
 |        #     # #   # # #          #    #       #              |
 |        #     # #    ## #          #    #       #              |
 |        ####### #     # #######    #    ####### #              |
 |                                                               |
 |        Linear-Scaling Ab Initio Total Energy Program          |
 |                                                               |
 |          Release for academic collaborators of ODG            |
 |                                             Version 5.3.2.12  |
 |                                                               |
 +---------------------------------------------------------------+
 |                                                               |
 |  Authors:                                                     |
 |  Jacek Dziedzic, Peter D. Haynes, Nicholas D. M. Hine,        |
 |  Arash. A. Mostofi, Mike C. Payne and Chris-Kriton Skylaris   |
 |                                                               |
 |  Contributors:                                                |
 |  J. Aarons, L. Andrinopoulos, P. W. Avraam, R. A. Bell,       |
 |  A. Bhandari, G. A. Bramley, R. J. Charlton, S. J. Clark,     |
 |  R. J. Clements, G. C. Constantinescu, F. Corsetti,           |
 |  N. Corsini, O. Dieguez, S. M. M. Dubois, K. K. B. Duff,      |
 |  J. M. Escartin, A. Greco, H. Helal, Q. O. Hill, L. P. Lee,   |
 |  J.-H. Li, E. B. Linscott, G. Moynihan, D. D. O`Regan,        |
 |  O. K. Okan, M. J. S. Phipps, C. J. Pickard,                  |
 |  J. C. A. Prentice, M. I. J. Probert, L. E. Ratcliff,         |
 |  M. Robinson, A. Ruiz Serrano, J. S. Spencer, E. W. Tait,     |
 |  G. Teobaldi, D. Turban, V. Vitale, K. A. Wilkinson,          |
 |  C. Weber, J. C. Womack, N. Yeung and T. J. Zuehlsdorff       |
 |                                                               |
 |                                   Copyright (c) 2004-2020     |
 |                                                               |
 |  Please cite:                                                 |
 |  "Introducing ONETEP: Linear-scaling density functional       |
 |   simulations on parallel computers".                         |
 |   C.-K. Skylaris, P. D. Haynes, A. A. Mostofi, M. C. Payne.   |
 |   J. Chem. Phys. 122 084119 (2005).                           |
 |                                                               |
 |          in all publications arising from your use of ONETEP. |
 |                                                               |
 +---------------------------------------------------------------+
 |                                                               |
 |   ONETEP is based on developments described in the following  |
 |   publications:                                               |
 |                                                               |
 |  "Nonorthogonal generalized Wannier function pseudopotential  |
 |   plane-wave method".                                         |
 |   C.-K. Skylaris, A. A. Mostofi, P. D. Haynes, O. Dieguez,    |
 |   M. C. Payne.                                                |
 |   Phys. Rev. B 66 035119 (2002).                              |
 |                                                               |
 |  "Preconditioned iterative minimization for linear-scaling    |
 |   electronic structure calculations".                         |
 |   A. A. Mostofi, P. D. Haynes, C.-K. Skylaris, M. C. Payne.   |
 |   J. Chem. Phys. 119(17), pp.8842-8848 (2003).                |
 |                                                               |
 |  "Total-energy calculations on a real space grid with         |
 |   localized functions and a plane-wave basis".                |
 |   A. A. Mostofi, C.-K. Skylaris, P. D. Haynes, M. C. Payne.   |
 |   Comput. Phys. Commun. 147, pp.788-802 (2002).               |
 |                                                               |
 |  "Accurate kinetic energy evaluation in electronic structure  |
 |   calculations with localized functions on real space grids"  |
 |   C.-K. Skylaris, A. A. Mostofi, P. D. Haynes, C. J. Pickard, |
 |   M. C. Payne.                                                |
 |   Comput. Phys. Commun. 140, pp.315-322 (2001).               |
 |                                                               |
 |  "Accurate ionic forces and geometry optimization in linear-  |
 |   scaling density-functional theory with local orbitals"      |
 |   N. D. M. Hine, M. Robinson, P. D. Haynes, C.-K. Skylaris,   |
 |   M. C. Payne, and A. A. Mostofi.                             |
 |   Phys. Rev. B 83 195102 (2011).                              |
 |                                                               |
 +---------------------------------------------------------------+

Job started: 09-07-2020 20:39 (+0100)
 
Reading parameters from file "30/592nano.dat" ...... done

If your calculation crashes here, before "Checking processes and threads..."
is displayed, then your stack size is insufficient.
If so, use "ulimit -s unlimited" at runtime.
You can disable this check with "check_stack_size F".

Checking processes and threads...
   Determining the default number of threads...
      No default threads set at compilation time: defaulting to 1.
      OpenMP library call suggests 4 threads.
      Hybrid MPI-OpenMP compilation detected.
      Number of MPI processes > 1.
      OMP_NUM_THREADS environment variable present and
      its value matches the one obtained from the OpenMP library call.
      Using this value as default.
      Default threads: 4
      Default applies to threads_max and threads_num_fftboxes.
      Settings in the input file override this default.
   ... done

   Running with 150 MPI processes.
   There are 10 MPI processes running on the same node as the root process.
   Each MPI process is using: 
               1 threads for simulation cell FFTs.
               1 threads for parallel FFT box operations.
               4 threads for loops over batched FFT box operations.
               4 threads in other parallel regions.
... done

Basic input checks...
Resetting ngwf_cg_rotate to TRUE for EDFT calculations
... done

Reading geometry and species blocks from file "30/592nano.dat" ...    
  Number of PPD points along a3 set to 1.  This is 
  the default value, it may have been provided also in the input file.
... done
 Writing xyz coordinates to file "30/592nano.xyz" ... done


--------------------------------------------------------------------------------
---------------------------------- INPUT FILE ----------------------------------
--------------------------------------------------------------------------------

task : singlepoint                                                              
ddec_classical_hirshfeld T                                                      
do_properties : true                                                            
dx_format T                                                                     
edft T                                                                          
output_detail VERBOSE                                                           
write_xyz T                                                                     
dispersion 4                                                                    
xc_functional PBE                                                               
cutoff_energy 830 eV                                                            
paw T                                                                           
geom_disp_tol 0.015 bohr                                                        
geom_energy_tol 1.5E-6 hartree                                                  
geom_force_tol 0.01 "ha/bohr"                                                   
%BLOCK SPECIES_LDOS_GROUPS                                                      
C                                                                               
H                                                                               
Li                                                                              
%ENDBLOCK SPECIES_LDOS_GROUPS                                                   
EDFT_MAXIT 30                                                                   
pdos_max_l = 2                                                                  
dos_smear  0.1 eV                                                               
popn_calculate T                                                                
PDOS_PSEUDOATOMIC T                                                             
PDOS_REDUCE_SWS F                                                               
PDOS_CONSTRUCT_BASIS F                                                          
PDOS_LOWDIN T                                                                   
PDOS_ORTH_ATOM_BLOCKS F                                                         
PDOS_LCAO_OPTIMIZE F                                                            
pdos_optados_output T                                                           
homo_plot 0                                                                     
lumo_plot 0                                                                     
homo_dens_plot -1                                                               
lumo_dens_plot -1                                                               
%BLOCK SPECIES                                                                  
C C 6 4 9.0                                                                     
H H 1 1 9.0                                                                     
Li Li 3 5 9.0                                                                   
%ENDBLOCK SPECIES                                                               
%BLOCK SPECIES_POT                                                              
C "~/pp/paw/c_pbe_abinit.paw"                                                   
H "~/pp/paw/h_pbe_abinit.paw"                                                   
Li "~/pp/paw/li_pbe_abinit.paw"                                                 
%ENDBLOCK SPECIES_POT                                                           
%BLOCK SPECIES_ATOMIC_SET                                                       
C "SOLVE conf=2s2 2p2"                                                          
H "SOLVE conf=1s1"                                                              
Li "SOLVE conf=1s2 2s1 2p0"                                                     
%ENDBLOCK SPECIES_ATOMIC_SET                                                    
%BLOCK LATTICE_CART                                                             
94.486315650000      0.000000000000       0.000000000000                        
0.000000000000       94.486315650000      0.000000000000                        
0.000000000000       0.000000000000       94.486315650000                       
%ENDBLOCK LATTICE_CART                                                          
%BLOCK POSITIONS_ABS                                                            
C 45.522297 50.729558 30.654487                                                 
C 45.427096 50.551192 36.789913                                                 
C 46.875475 53.065765 30.666491                                                 
C 48.118847 50.549703 36.796525                                                 
C 49.575800 48.400434 30.683668                                                 
C 49.461128 48.212682 36.783712                                                 
C 50.932637 50.733404 30.695964                                                 
C 52.152846 48.206449 36.798162                                                 
C 45.521344 55.396834 30.581351                                                 
C 45.435225 55.215254 36.769322                                                 
C 46.870796 57.733361 30.495765                                                 
C 48.125568 55.214017 36.787030                                                 
C 49.578571 53.069292 30.686741                                                 
C 49.467178 52.880381 36.811617                                                 
C 50.929893 55.400485 30.594458                                                 
C 52.163318 52.878208 36.854687                                                 
C 45.398123 50.530147 42.981058                                                 
C 45.412218 50.434027 49.101182                                                 
C 46.746856 52.863104 42.972114                                                 
C 48.111751 50.441373 49.104069                                                 
C 49.440293 48.187154 42.971492                                                 
C 49.473414 48.110837 49.173434                                                 
C 50.791850 50.518460 42.972728                                                 
C 52.169768 48.122207 49.297277                                                 
C 45.401561 55.197320 42.971492                                                 
C 45.395246 55.103107 49.178126                                                 
C 46.748689 57.533319 42.962766                                                 
C 48.089400 55.114281 49.161053                                                 
C 49.444783 52.852725 42.975196                                                 
C 49.447825 52.783035 49.124103                                                 
C 50.792314 55.184860 42.988975                                                 
C 52.142629 52.796587 49.219981                                                 
C 57.672922 48.377810 30.274713                                                 
C 57.523555 48.177073 36.959795                                                 
C 59.036349 50.700918 30.181898                                                 
C 60.237983 48.158159 37.166965                                                 
C 57.535599 48.173553 42.887687                                                 
C 57.535556 48.157193 49.826946                                                 
C 58.895388 50.520314 42.844340                                                 
C 60.266034 48.181527 50.110550                                                 
C 53.633276 50.728329 30.622453                                                 
C 53.504789 50.538682 36.854279                                                 
C 54.993575 53.063058 30.545029                                                 
C 56.192999 50.531226 36.927814                                                 
C 53.490339 50.513597 42.968101                                                 
C 53.504546 50.469204 49.329155                                                 
C 54.832309 52.848843 42.969386                                                 
C 56.196287 50.489661 49.589748                                                 
C 57.661391 43.701235 30.356859                                                 
C 57.524125 43.513633 36.691055                                                 
C 59.000235 46.009098 30.104802                                                 
C 60.223425 43.513604 36.774567                                                 
C 57.521712 43.493117 42.712788                                                 
C 57.578187 43.484037 49.931720                                                 
C 58.885560 45.811305 42.803159                                                 
C 60.291334 43.521670 50.177705                                                 
C 53.622322 46.062413 30.591572                                                 
C 53.489781 45.871332 36.740955                                                 
C 54.974294 48.389007 30.537908                                                 
C 56.185595 45.858796 36.797777                                                 
C 53.482037 45.843801 42.926322                                                 
C 53.524841 45.793546 49.480631                                                 
C 54.839925 48.177049 42.938827                                                 
C 56.215714 45.819866 49.731302                                                 
C 57.688084 57.732399 30.312832                                                 
C 57.561311 57.537099 37.036888                                                 
C 59.033181 60.127792 30.268825                                                 
C 60.255605 57.529308 37.059921                                                 
C 57.522093 57.527557 43.004688                                                 
C 57.513603 57.513498 49.383045                                                 
C 58.857869 59.877393 43.077273                                                 
C 60.248095 57.508769 49.473786                                                 
C 45.494701 64.738338 30.203427                                                 
C 45.441502 64.559545 36.603924                                                 
C 46.880187 67.098217 30.165217                                                 
C 48.108790 64.571042 36.874428                                                 
C 49.545534 62.385518 30.061576                                                 
C 49.470397 62.220212 36.895443                                                 
C 50.902593 64.758435 29.777924                                                 
C 52.169621 62.221330 37.022218                                                 
C 45.401920 64.552145 42.913656                                                 
C 45.374470 64.413394 50.114363                                                 
C 46.791818 66.899959 42.853633                                                 
C 48.058959 64.442936 50.036476                                                 
C 49.445029 62.185875 42.851911                                                 
C 49.426744 62.114928 49.728525                                                 
C 50.831218 64.551214 42.719341                                                 
C 52.121052 62.137411 49.672322                                                 
C 53.616376 60.050759 30.135300                                                 
C 53.515347 59.876423 37.020917                                                 
C 54.975161 62.418838 29.837330                                                 
C 56.228523 59.864505 37.126443                                                 
C 53.491688 59.841699 43.020217                                                 
C 53.459261 59.819338 49.408446                                                 
C 54.850843 62.198096 43.061103                                                 
C 56.161169 59.839215 49.345007                                                 
C 57.693163 53.052823 30.366656                                                 
C 57.533036 52.870446 37.003293                                                 
C 59.047550 55.398125 30.280504                                                 
C 60.253398 52.867671 37.187159                                                 
C 57.535967 52.853559 42.882735                                                 
C 57.516002 52.843464 49.666142                                                 
C 58.877671 55.216689 42.854030                                                 
C 60.248375 52.868483 49.958420                                                 
C 45.511792 60.065803 30.361121                                                 
C 45.438989 59.879754 36.704341                                                 
C 46.857388 62.390284 30.204771                                                 
C 48.132200 59.882027 36.786274                                                 
C 49.569215 57.734646 30.483021                                                 
C 49.476484 57.549814 36.812901                                                 
C 50.914712 60.067998 30.237943                                                 
C 52.165942 57.544194 36.895843                                                 
C 45.405430 59.870490 42.953661                                                 
C 45.381902 59.763543 49.528834                                                 
C 46.758827 62.198426 42.898880                                                 
C 48.076046 59.779042 49.479348                                                 
C 49.442178 57.523430 42.974156                                                 
C 49.428120 57.458879 49.277603                                                 
C 50.792579 59.855797 42.954583                                                 
C 52.124567 57.476482 49.286513                                                 
C 53.634983 55.396471 30.523032                                                 
C 53.509165 55.204875 36.905791                                                 
C 54.973921 57.733197 30.328382                                                 
C 56.206003 55.198490 36.968715                                                 
C 53.482699 55.178779 42.994656                                                 
C 53.478275 55.144850 49.273275                                                 
C 54.828458 57.522299 43.027000                                                 
C 56.169588 55.156211 49.435875                                                 
H 27.288145 41.362917 29.630051                                                 
H 28.241933 39.471995 36.697830                                                 
H 27.164966 41.227140 42.566036                                                 
H 28.279688 39.298217 50.640277                                                 
H 41.872528 30.298206 29.665562                                                 
C 42.921254 32.080315 29.669951                                                 
H 44.450241 30.105117 36.866444                                                 
H 41.719928 30.089592 42.825950                                                 
C 42.751551 31.879115 42.917741                                                 
H 44.477781 29.984799 49.562172                                                 
H 29.634717 37.271208 29.533086                                                 
C 30.674797 39.055401 29.603766                                                 
H 32.263953 37.134964 36.956110                                                 
H 33.749430 34.886193 29.512289                                                 
C 34.770637 36.681035 29.580417                                                 
H 29.478191 37.168078 42.965058                                                 
C 30.521543 38.952989 42.960145                                                 
H 32.361397 36.970376 50.689120                                                 
H 33.535064 34.763599 43.051394                                                 
C 34.577942 36.546635 43.084059                                                 
H 37.841879 32.598110 29.405067                                                 
C 38.854972 34.400557 29.451506                                                 
H 40.390468 32.431020 37.101025                                                 
H 37.638929 32.403278 42.881915                                                 
C 38.659275 34.200210 42.915329                                                 
H 40.411263 32.321684 50.148302                                                 
H 46.533114 30.300235 30.082143                                                 
H 46.395861 30.119887 43.145407                                                 
H 25.846334 48.209535 36.813115                                                 
C 27.912751 48.217815 36.818068                                                 
H 25.823066 48.028593 50.093967                                                 
C 27.887840 48.045335 50.028800                                                 
H 25.877692 43.514392 36.720764                                                 
H 27.287959 46.077017 29.499146                                                 
C 27.946171 43.511608 36.752147                                                 
H 25.890798 43.317737 50.259882                                                 
H 27.166936 45.924973 42.512605                                                 
C 27.958006 43.338463 50.233353                                                 
H 25.902523 57.630536 37.096381                                                 
H 27.331116 60.061251 29.439803                                                 
C 27.970881 57.627389 37.059915                                                 
H 25.814456 57.428348 49.491049                                                 
H 27.198679 59.865057 43.181759                                                 
C 27.880340 57.423178 49.559388                                                 
H 25.857552 52.943510 36.944111                                                 
H 27.326242 55.401723 29.426053                                                 
C 27.923911 52.925830 36.926781                                                 
H 25.797138 52.726442 49.829876                                                 
H 27.205748 55.225659 43.116444                                                 
C 27.865798 52.720131 49.796420                                                 
C 29.354678 41.359493 29.664505                                                 
C 29.258889 41.272442 36.736175                                                 
C 30.636863 43.720600 29.726673                                                 
C 31.948125 41.205621 36.818131                                                 
C 33.369464 38.966040 29.642902                                                 
C 33.307324 38.920851 36.910550                                                 
C 34.731614 41.365196 29.803625                                                 
C 35.967217 38.856366 37.090050                                                 
C 29.355200 46.070181 29.598189                                                 
C 29.218926 45.884492 36.850993                                                 
C 30.661654 48.390194 29.535607                                                 
C 31.941921 45.870221 36.846373                                                 
C 33.381198 43.702994 29.842751                                                 
C 33.288660 43.551227 36.836079                                                 
C 34.735575 46.054451 29.941797                                                 
C 35.992493 43.549356 36.854707                                                 
C 29.225227 41.222661 42.718634                                                 
C 29.296665 41.090371 50.468188                                                 
C 30.515661 43.589531 42.702342                                                 
C 31.987741 41.044967 50.433032                                                 
C 33.208313 38.852192 43.016356                                                 
C 33.383212 38.761112 50.504310                                                 
C 34.564021 41.223096 43.017904                                                 
C 36.036732 38.738102 50.446198                                                 
C 29.228555 45.921397 42.672298                                                 
C 29.203240 45.721796 50.091552                                                 
C 30.532967 48.256915 42.633096                                                 
C 31.934204 45.723982 49.958617                                                 
C 33.237661 43.555968 42.895851                                                 
C 33.307492 43.412719 50.103734                                                 
C 34.602327 45.899356 42.931115                                                 
C 36.014815 43.416006 49.922391                                                 
C 41.500573 39.062264 29.799965                                                 
C 41.388098 38.878185 36.920283                                                 
C 42.840002 41.397767 30.116843                                                 
C 44.075634 38.877850 36.804732                                                 
C 41.333082 38.867251 43.009073                                                 
C 41.446198 38.769341 49.939812                                                 
C 42.684354 41.205800 43.058549                                                 
C 44.123049 38.768348 49.692000                                                 
C 37.449096 41.371622 29.899865                                                 
C 37.334233 41.227477 36.946255                                                 
C 38.783056 43.713079 30.137617                                                 
C 40.033063 41.216727 36.884876                                                 
C 37.287279 41.211104 43.070004                                                 
C 37.380891 41.106838 50.088570                                                 
C 38.642420 43.543342 43.068672                                                 
C 40.071266 41.090154 49.838666                                                 
C 41.509478 34.378639 29.507632                                                 
C 41.410815 34.224334 37.017863                                                 
C 42.876737 36.731017 29.597579                                                 
C 44.075391 34.183624 36.869132                                                 
C 41.333382 34.169131 42.862419                                                 
C 41.446013 34.111146 50.056605                                                 
C 42.700735 36.519300 42.961028                                                 
C 44.109103 34.061431 49.746101                                                 
C 37.454841 36.655438 29.523597                                                 
C 37.347341 36.565632 37.007619                                                 
C 38.814711 39.036475 29.725784                                                 
C 40.013080 36.505134 37.015491                                                 
C 37.253348 36.478313 42.980825                                                 
C 37.420171 36.452374 50.266452                                                 
C 38.634087 38.863389 43.034216                                                 
C 40.093411 36.394665 50.246491                                                 
C 41.471298 48.389503 30.483269                                                 
C 41.384023 48.218982 36.779176                                                 
C 42.822482 50.726120 30.569079                                                 
C 44.077336 48.217933 36.784196                                                 
C 41.352727 48.205975 43.019199                                                 
C 41.373825 48.085489 49.248031                                                 
C 42.703243 50.536711 42.996918                                                 
C 44.071508 48.093358 49.167370                                                 
C 29.394672 55.398297 29.525385                                                 
C 29.239318 55.250381 37.046142                                                 
C 30.695418 57.724563 29.548366                                                 
C 31.960426 55.253615 36.985891                                                 
C 33.411449 53.071897 29.776444                                                 
C 33.305659 52.898604 36.878373                                                 
C 34.748772 55.394575 29.862820                                                 
C 36.003613 52.890025 36.807846                                                 
C 29.274778 55.223699 43.108375                                                 
C 29.155090 55.040877 49.608401                                                 
C 30.563259 57.529499 43.131541                                                 
C 31.896782 55.067690 49.578397                                                 
C 33.279137 52.901441 42.995766                                                 
C 33.256384 52.727927 49.572109                                                 
C 34.620974 55.215756 43.036964                                                 
C 35.955929 52.736040 49.437098                                                 
C 37.428533 50.725020 30.228043                                                 
C 37.342641 50.554995 36.772738                                                 
C 38.775999 53.061547 30.307262                                                 
C 40.040952 50.552558 36.773083                                                 
C 37.315183 50.549395 43.003032                                                 
C 37.313761 50.407398 49.380602                                                 
C 38.665261 52.883511 43.009839                                                 
C 40.013551 50.416312 49.250225                                                 
C 41.481041 43.722312 30.264071                                                 
C 41.379655 43.547443 36.809333                                                 
C 42.824326 46.056313 30.460436                                                 
C 44.075598 43.547732 36.769716                                                 
C 41.338375 43.538387 43.061418                                                 
C 41.402457 43.423593 49.522864                                                 
C 42.694719 45.871658 43.034921                                                 
C 44.100348 43.431281 49.396840                                                 
C 29.379583 50.730472 29.655546                                                 
C 29.194539 50.569587 36.892313                                                 
C 30.683122 53.075220 29.513596                                                 
C 31.946817 50.564181 36.851094                                                 
C 33.400977 48.384985 29.810387                                                 
C 33.298051 48.223527 36.821824                                                 
C 34.740277 50.724223 29.957116                                                 
C 35.996950 48.222879 36.779225                                                 
C 29.260001 50.578589 42.835735                                                 
C 29.159043 50.407418 49.913749                                                 
C 30.555618 52.906119 42.993712                                                 
C 31.912081 50.409698 49.747301                                                 
C 33.273372 48.230217 42.835609                                                 
C 33.274593 48.077395 49.737289                                                 
C 34.619264 50.560007 42.950206                                                 
C 35.975655 48.071397 49.541738                                                 
C 37.431527 46.048359 30.162597                                                 
C 37.343311 45.887187 36.798728                                                 
C 38.776879 48.384939 30.319358                                                 
C 40.033056 45.884418 36.791727                                                 
C 37.299962 45.885186 43.027351                                                 
C 37.339028 45.746908 49.600482                                                 
C 38.655110 48.212082 43.019091                                                 
C 40.036790 45.749781 49.431461                                                 
C 45.501790 32.082516 29.903914                                                 
C 45.485801 31.886693 36.720360                                                 
C 46.916063 34.381905 29.986873                                                 
C 48.054230 31.883264 36.404089                                                 
H 49.089835 30.096396 36.299551                                                 
H 50.564634 32.606550 30.295128                                                 
C 45.552269 36.727876 29.900643                                                 
C 45.437051 36.528147 36.724496                                                 
C 46.882803 39.061474 30.164573                                                 
C 48.105143 36.531863 36.424435                                                 
C 49.548709 34.403375 30.190933                                                 
C 49.468335 34.182120 36.239041                                                 
C 50.935671 36.670337 30.314264                                                 
C 52.128958 34.220555 36.083023                                                 
C 45.339845 31.895881 43.100568                                                 
C 45.514278 31.772288 49.588956                                                 
C 46.730363 34.191858 43.231699                                                 
C 48.156213 31.771256 49.509534                                                 
H 49.182553 29.980703 49.425971                                                 
H 50.408206 32.432008 43.483315                                                 
C 45.376481 36.525775 43.131156                                                 
C 45.489063 36.423686 49.647719                                                 
C 46.724774 38.863425 43.161481                                                 
C 48.182131 36.425966 49.577148                                                 
C 49.383490 34.227141 43.406576                                                 
C 49.578382 34.064934 49.586070                                                 
C 50.762890 36.494602 43.430025                                                 
C 52.231998 34.114230 49.764903                                                 
H 53.150185 32.424627 35.998677                                                 
H 53.266216 32.323151 49.761030                                                 
C 57.660308 39.076436 30.476304                                                 
C 57.528283 38.845440 36.388973                                                 
C 59.004344 41.349341 30.384080                                                 
C 60.223559 38.914713 36.452059                                                 
C 57.464935 38.831470 42.576727                                                 
C 57.624564 38.777196 50.037440                                                 
C 58.844642 41.122011 42.487395                                                 
C 60.310788 38.885269 50.099526                                                 
C 45.523499 46.061924 30.548170                                                 
C 45.422022 45.885047 36.767702                                                 
C 46.876169 48.395638 30.652901                                                 
C 48.113061 45.882596 36.748983                                                 
C 49.570390 43.733964 30.545610                                                 
C 49.458814 43.546047 36.666522                                                 
C 50.925219 46.064798 30.637216                                                 
C 52.147992 43.542089 36.634501                                                 
C 45.390440 45.864650 43.016998                                                 
C 45.435467 45.765820 49.231017                                                 
C 46.745527 48.193811 42.986223                                                 
C 48.135131 45.771444 49.227394                                                 
C 49.431834 43.520670 43.015348                                                 
C 49.495349 43.441712 49.369459                                                 
C 50.786945 45.851770 42.966769                                                 
C 52.188821 43.453232 49.503605                                                 
C 53.633425 41.396003 30.534264                                                 
C 53.498405 41.208336 36.494970                                                 
C 54.973316 43.721154 30.521225                                                 
C 56.187394 41.200173 36.514044                                                 
C 53.462384 41.179323 42.846090                                                 
C 53.542566 41.119066 49.737524                                                 
C 54.814197 43.499362 42.829619                                                 
C 56.257713 41.143191 49.907060                                                 
H 57.227714 34.788225 36.123045                                                 
H 58.695437 37.288715 30.546265                                                 
H 57.321522 34.695189 50.022629                                                 
H 58.497262 37.043428 42.469125                                                 
C 45.529015 41.401457 30.253236                                                 
C 45.422187 41.220498 36.722517                                                 
C 46.872837 43.729272 30.470008                                                 
C 48.111980 41.217362 36.615885                                                 
C 49.559765 39.049046 30.349454                                                 
C 49.459016 38.882732 36.424556                                                 
C 50.920584 41.394898 30.500572                                                 
C 52.157382 38.883070 36.325646                                                 
C 45.377609 41.202589 43.073521                                                 
C 45.463402 41.098970 49.484744                                                 
C 46.732838 43.527282 43.045611                                                 
C 48.159505 41.100237 49.454876                                                 
C 49.403708 38.858641 43.219307                                                 
C 49.523524 38.772515 49.588136                                                 
C 50.773563 41.183245 43.037492                                                 
C 52.207504 38.772811 49.761493                                                 
C 53.614880 36.727942 30.307962                                                 
C 53.529959 36.513777 36.149688                                                 
C 55.006484 39.017430 30.477035                                                 
C 56.187073 36.574672 36.210853                                                 
C 53.442486 36.522463 43.130767                                                 
C 53.588437 36.391609 49.900602                                                 
C 54.811703 38.790774 42.689530                                                 
C 56.268135 36.473099 49.997599                                                 
H 61.250348 37.120608 36.366547                                                 
H 62.716859 39.619676 30.485471                                                 
H 61.371734 37.111491 50.107939                                                 
H 62.549910 39.418215 42.101038                                                 
H 28.279437 61.666332 37.068981                                                 
H 28.171092 61.499281 49.650061                                                 
C 29.400198 60.080622 29.452309                                                 
C 29.289740 59.862270 37.042552                                                 
C 30.686935 62.333919 29.381625                                                 
C 31.978593 59.915998 36.991064                                                 
C 33.396632 57.730452 29.670516                                                 
C 33.312530 57.569823 36.958921                                                 
C 34.733688 60.050702 29.611114                                                 
C 36.012651 57.562326 36.865498                                                 
H 29.658562 64.127990 29.318422                                                 
H 32.312288 63.991326 36.954480                                                 
C 33.382625 62.409526 29.422778                                                 
C 33.347664 62.199407 36.925597                                                 
C 34.744850 64.708067 29.492199                                                 
C 36.006176 62.251720 36.862745                                                 
C 29.266954 59.895219 43.154905                                                 
C 29.198769 59.705776 49.656571                                                 
C 30.539723 62.148970 43.117715                                                 
C 31.894186 59.777390 49.805408                                                 
C 33.268699 57.546530 43.068634                                                 
C 33.242134 57.396881 49.669143                                                 
C 34.593493 59.875916 43.016809                                                 
C 35.958452 57.402903 49.688364                                                 
H 29.507052 63.941772 43.127251                                                 
H 32.230646 63.832395 50.238782                                                 
C 33.237240 62.232816 43.055591                                                 
C 33.264050 62.043067 50.140880                                                 
C 34.587663 64.531946 43.201917                                                 
C 35.932744 62.078426 50.316266                                                 
C 41.471085 57.730971 30.325743                                                 
C 41.399132 57.550949 36.724784                                                 
C 42.812214 60.067610 30.292584                                                 
C 44.093899 57.552724 36.724822                                                 
C 41.358911 57.546806 42.984768                                                 
C 41.344446 57.420717 49.458732                                                 
C 42.702623 59.884738 42.980539                                                 
C 44.040768 57.433524 49.351980                                                 
C 37.444419 60.063547 29.847236                                                 
C 37.360415 59.878086 36.792903                                                 
C 38.779685 62.401692 29.880865                                                 
C 40.058205 59.882189 36.650340                                                 
C 37.310391 59.890667 42.990151                                                 
C 37.301420 59.714911 49.940885                                                 
C 38.650496 62.231036 43.071187                                                 
C 39.996489 59.741869 49.772219                                                 
C 41.474309 53.061673 30.487057                                                 
C 41.389554 52.883941 36.779981                                                 
C 42.823034 55.394212 30.490758                                                 
C 44.084003 52.885149 36.783964                                                 
C 41.360790 52.875984 42.995929                                                 
C 41.354462 52.753609 49.208708                                                 
C 42.707557 55.206352 42.982602                                                 
C 44.053425 52.764395 49.133856                                                 
C 37.439080 55.395012 30.117255                                                 
C 37.355752 55.221069 36.811282                                                 
C 38.786893 57.727859 30.123410                                                 
C 40.044539 55.218627 36.775087                                                 
C 37.323390 55.215029 43.010503                                                 
C 37.303499 55.073038 49.454850                                                 
C 38.667684 57.547876 42.995921                                                 
C 40.000297 55.083563 49.351584                                                 
C 41.406118 67.105009 30.159076                                                 
C 41.442678 66.832381 36.126652                                                 
C 42.833231 69.396418 30.312782                                                 
C 44.092525 66.887802 36.406243                                                 
C 41.340969 66.938478 43.313755                                                 
C 41.329547 66.694452 50.384527                                                 
C 42.768925 69.222060 43.180498                                                 
C 43.990081 66.737614 50.449008                                                 
H 37.729054 68.851478 29.874747                                                 
H 40.419313 68.618946 35.909819                                                 
H 37.632724 68.688971 43.678091                                                 
H 40.293654 68.478563 50.547418                                                 
C 41.460759 62.395550 30.130505                                                 
C 41.420071 62.204857 36.458561                                                 
C 42.803043 64.740720 30.190256                                                 
C 44.096209 62.215567 36.569428                                                 
C 41.354550 62.217371 43.055033                                                 
C 41.345475 62.070782 49.952640                                                 
C 42.715723 64.570118 43.081222                                                 
C 44.021881 62.080867 49.844222                                                 
H 33.698832 66.490998 29.438766                                                 
H 33.531144 66.305165 43.321048                                                 
C 37.411358 64.781883 29.708177                                                 
C 37.381112 64.522879 36.404453                                                 
C 38.765655 67.062878 29.898366                                                 
C 40.062871 64.554944 36.156960                                                 
C 37.265110 64.617625 43.264123                                                 
C 37.308521 64.354545 50.343791                                                 
C 38.654155 66.902191 43.488917                                                 
C 39.969542 64.417447 50.237726                                                 
C 61.698281 41.409569 30.292426                                                 
C 61.513307 41.153346 36.630031                                                 
C 62.995559 43.632077 29.973301                                                 
H 63.579973 41.165137 36.703839                                                 
C 61.705110 45.997837 29.806449                                                 
C 61.512451 45.823157 37.043638                                                 
C 63.011189 48.331842 29.622538                                                 
H 63.577947 45.812869 37.185347                                                 
H 65.063978 43.628181 29.907033                                                 
C 61.527928 41.190239 42.374252                                                 
C 61.592891 41.169620 50.239635                                                 
C 62.863620 43.442409 42.593000                                                 
H 63.652766 41.183402 50.419372                                                 
C 61.618784 45.823441 42.723123                                                 
C 61.577010 45.871841 50.109455                                                 
C 62.933745 48.161296 42.765745                                                 
H 63.644048 45.881374 50.206054                                                 
H 64.927511 43.413767 42.484531                                                 
C 61.802401 55.396939 30.079640                                                 
C 61.541919 55.194294 37.135124                                                 
C 63.054911 57.765799 30.333751                                                 
H 63.597672 55.194168 37.384569                                                 
H 65.138366 53.049529 29.523604                                                 
C 61.595241 55.214120 42.730501                                                 
C 61.542381 55.183054 49.791943                                                 
C 62.867801 57.591793 42.811836                                                 
H 63.609619 55.186024 49.858694                                                 
H 64.980183 52.910398 42.612819                                                 
C 61.770324 50.692413 29.782008                                                 
C 61.557716 50.508969 37.059474                                                 
C 63.084439 53.043850 29.753607                                                 
H 65.066716 48.297338 29.408361                                                 
C 61.650324 50.520466 42.731200                                                 
C 61.548107 50.525214 49.904691                                                 
C 62.913429 52.882549 42.698284                                                 
H 64.997695 48.147711 42.664092                                                 
H 41.807748 71.187799 30.400199                                                 
H 44.430951 70.966979 36.408259                                                 
H 41.752219 71.020180 43.273037                                                 
H 44.341351 70.827273 50.604239                                                 
C 45.475060 69.387368 30.317296                                                 
C 45.477497 69.187706 36.548085                                                 
H 46.514035 71.171157 30.418908                                                 
C 48.055757 69.211518 36.867051                                                 
C 49.550789 67.040815 29.938099                                                 
C 49.468995 66.924378 37.030469                                                 
H 50.589198 68.829005 29.908545                                                 
C 52.141228 66.892328 37.152927                                                 
H 49.082087 71.004964 36.981635                                                 
C 45.384932 69.199369 42.927365                                                 
C 45.393495 69.049633 50.491753                                                 
H 46.421905 70.982293 42.818854                                                 
C 47.996530 69.072746 50.382183                                                 
C 49.451382 66.846569 42.792640                                                 
C 49.424806 66.793044 50.236942                                                 
H 50.483144 68.634021 42.682353                                                 
C 52.094554 66.780386 50.129598                                                 
H 49.021359 70.868173 50.410162                                                 
H 57.251116 66.310474 37.412838                                                 
H 57.172026 66.287366 49.692594                                                 
H 53.155659 68.689041 37.261731                                                 
H 53.108622 68.579397 50.201198                                                 
C 57.636538 62.403308 30.003248                                                 
C 57.578821 62.223181 37.264227                                                 
H 58.653445 64.204293 29.920289                                                 
C 60.267223 62.143023 37.169864                                                 
C 57.500072 62.145094 43.144226                                                 
C 57.504820 62.232364 49.375092                                                 
H 58.532234 63.937129 43.166961                                                 
C 60.204723 62.155322 49.261305                                                 
C 53.581548 64.699994 29.854314                                                 
C 53.540830 64.605381 37.189048                                                 
C 56.214973 64.527380 37.275201                                                 
C 53.475522 64.485644 42.955453                                                 
C 53.495902 64.514839 49.868307                                                 
C 56.144971 64.493292 49.654125                                                 
C 61.715280 60.061142 30.430932                                                 
C 61.545896 59.884415 37.069773                                                 
H 62.739729 61.844854 30.622455                                                 
H 63.612288 59.867870 37.024500                                                 
H 65.116415 57.782260 30.428732                                                 
H 61.294777 63.937904 37.180291                                                 
C 61.552646 59.816377 42.988582                                                 
C 61.524076 59.871267 49.310072                                                 
H 62.559856 61.621656 42.999343                                                 
H 63.589367 59.864314 49.261850                                                 
H 64.933247 57.600031 42.688142                                                 
H 61.234670 63.944660 49.184862                                                 
H 63.614704 50.534216 50.016337                                                 
H 36.389102 34.664905 50.417461                                                 
H 36.273438 66.140018 50.500787                                                 
H 27.192433 50.591756 42.755306                                                 
H 54.515879 66.272747 42.920518                                                 
H 63.590337 50.491359 37.461996                                                 
H 54.464580 34.723132 43.160283                                                 
H 36.312098 34.779576 37.113774                                                 
H 36.345073 66.310921 36.264887                                                 
H 54.612161 66.490808 29.727155                                                 
H 27.313055 50.737946 29.518598                                                 
H 54.644179 34.937777 30.312878                                                 
Li 32.005408 41.463789 26.412665                                                
Li 30.419161 47.982820 33.386965                                                
Li 58.910024 59.956313 52.663235                                                
Li 35.955273 38.599307 33.198020                                                
Li 60.510471 57.947418 27.012917                                                
Li 42.535416 36.252393 33.463541                                                
Li 30.434477 57.323284 52.951898                                                
Li 35.813039 62.189540 46.504922                                                
Li 46.942840 33.988715 52.916255                                                
Li 30.157500 48.094017 46.454396                                                
Li 52.397441 39.083792 27.101599                                                
Li 35.712538 38.717913 46.548323                                                
Li 44.142803 67.226592 26.924755                                                
Li 35.613072 62.507121 33.052541                                                
Li 30.405646 53.347968 33.422405                                                
Li 40.261653 36.134307 46.384552                                                
Li 55.146966 38.544618 46.487326                                                
Li 60.558598 48.071124 46.248648                                                
Li 44.342528 66.931979 46.516230                                                
Li 50.796161 64.963652 46.533484                                                
Li 50.847777 64.973058 33.617756                                                
Li 39.643355 65.495596 39.840767                                                
Li 60.518028 53.164490 46.153427                                                
Li 51.023922 36.233522 39.634758                                                
Li 30.875401 42.071295 46.553806                                                
Li 60.846655 48.020810 33.368139                                                
Li 55.364127 62.330944 33.714063                                                
Li 61.486275 52.976274 33.496316                                                
Li 60.091396 42.407348 46.236255                                                
Li 28.995360 52.991520 39.993600                                                
%ENDBLOCK POSITIONS_ABS                                                         

--------------------------------------------------------------------------------
-------------------------------- END INPUT FILE --------------------------------
--------------------------------------------------------------------------------


 
<<<<<<<<<<<<<<<<<<<<<<<<<<<<<<<<< Full system >>>>>>>>>>>>>>>>>>>>>>>>>>>>>>>>>>
<<<<<<<<<<<<<<<<<<<<<<<<<<< PAW Dataset information >>>>>>>>>>>>>>>>>>>>>>>>>>>
File: ~/pp/paw/c_pbe_abinit.paw; rc = 1.25 bohr; shape type =  3; rshape = 1.25 bohr;
  Atomic number:  6;  ionic charge:  4.000000
    Partial Wave 1: l = 0
    Partial Wave 2: l = 0
    Partial Wave 3: l = 1
    Partial Wave 4: l = 1
  Core charge supplied for Nonlinear Core Corrections
File: ~/pp/paw/h_pbe_abinit.paw; rc = 0.90 bohr; shape type =  3; rshape = 0.90 bohr;
  Atomic number:  1;  ionic charge:  1.000000
    Partial Wave 1: l = 0
    Partial Wave 2: l = 0
File: ~/pp/paw/li_pbe_abinit.paw; rc = 1.42 bohr; shape type =  3; rshape = 1.42 bohr;
  Atomic number:  3;  ionic charge:  3.000000
    Partial Wave 1: l = 0
    Partial Wave 2: l = 0
    Partial Wave 3: l = 0
    Partial Wave 4: l = 1
    Partial Wave 5: l = 1
<<<<<<<<<<<<<<<<<<<<<<<<<<<<<<<<<<<<<<< >>>>>>>>>>>>>>>>>>>>>>>>>>>>>>>>>>>>>>>

-------------------------- Atom counting information ---------------------------
Symbol    Natoms    Nngwfs    Nprojs
  C        484      1936      3872
  H        108       108       216
  Li        30       150       270
.......   ......    ......    ......
Totals:    622      2194      4358
--------------------------------------------------------------------------------

=============================== PSINC grid sizes ===============================
                      Simulation cell:  189 x 189 x 189
                              FFT-box:  117 x 117 x 117
                                  PPD:    7 x   7 x   1
Grid space d1=  0.499927596032a0 (KE cutoff=  30.39413Eh = 827.06648eV)
Grid space d2=  0.499927596032a0 (KE cutoff=  30.39413Eh = 827.06648eV)
Grid space d3=  0.499927596032a0 (KE cutoff=  30.39413Eh = 827.06648eV)
================================================================================
  
WARNING in cell_grid_distribute:
Average of less than one 23-slab per node, so workload cannot be
equally balanced between nodes.

********************* Fourier parallelisation information **********************
       Coarse grid (whole simulation cell) dimensions:    189   189   189
          Real-space ('12') slabs/node (min max mean):      1     2     1
         Recip-space ('23') slabs/node (min max mean):      0     1     0
********************************************************************************

********************* Fourier parallelisation information **********************
       Double grid (whole simulation cell) dimensions:    378   378   378
          Real-space ('12') slabs/node (min max mean):      2     3     2
         Recip-space ('23') slabs/node (min max mean):      1     2     1
********************************************************************************

Atom SCF Calculation for C  : Z (AE atom) =   6 : Z (PS atom) =   4
Config String: 2s2 2p2
Orbitals (num,occ):  2     2.00 2.00
Orbitals   (num,l):  2        0    1
Real-space Grid (nr,dr,rmax): 1377    0.0065406977    9.0000000000
Spherical Bessel Basis (nsws,lmax,cutoff):   37    2  183.0099912382
Confining potential (l,width,scale):  0    3.0000000000  100.0000000000
Confining potential (l,width,scale):  1    3.0000000000  100.0000000000
  1         -5.4350126632   -1.2715272878    4.5135247139   -1.5681949477
  2         -5.3876836850   -1.3562195125    4.4235426751   -1.5380057521
  3         -5.3928844498   -1.3758175853    4.4021699684   -1.5318377811
  4         -5.3988962903   -1.3800385428    4.3975423583   -1.5307324410
  5         -5.4018428823   -1.3823489590    4.3950111904   -1.5301555648
  6         -5.4033571720   -1.3835805046    4.3936635548   -1.5298576834
  7         -5.4041480647   -1.3842324820    4.3929512000   -1.5297032953
  8         -5.4045641108   -1.3845769138    4.3925755232   -1.5296229456
  9         -5.4047838258   -1.3847587737    4.3923775340   -1.5295810042
 10         -5.4049001347   -1.3848548089    4.3922731819   -1.5295590658
 11         -5.4049618018   -1.3849055476    4.3922181562   -1.5295475724
 12         -5.4049945351   -1.3849323732    4.3921891206   -1.5295415432
 13         -5.4050119258   -1.3849465673    4.3921737867   -1.5295383767
 14         -5.4050211723   -1.3849540841    4.3921656816   -1.5295367119
 15         -5.4050260920   -1.3849580684    4.3921613935   -1.5295358358
 16         -5.4050287113   -1.3849601822    4.3921591228   -1.5295353742
 17         -5.4050301068   -1.3849613045    4.3921579192   -1.5295351307
 18         -5.4050308507   -1.3849619010    4.3921572806   -1.5295350022
 19         -5.4050312476   -1.3849622183    4.3921569415   -1.5295349343
 20         -5.4050314594   -1.3849623873    4.3921567612   -1.5295348984
 21         -5.4050315725   -1.3849624773    4.3921566653   -1.5295348794
 22         -5.4050316330   -1.3849625253    4.3921566143   -1.5295348693
Atom SCF converged after  22 iterations to a total energy of     -5.40503163

Atom SCF Calculation for H  : Z (AE atom) =   1 : Z (PS atom) =   1
Config String: 1s1
Orbitals (num,occ):  1     1.00
Orbitals   (num,l):  1        0
Real-space Grid (nr,dr,rmax): 1377    0.0065406977    9.0000000000
Spherical Bessel Basis (nsws,lmax,cutoff):   37    1  183.0099912382
Confining potential (l,width,scale):  0    3.0000000000  100.0000000000
  1         -0.3605254152   -0.2399954029    0.2820952946   -0.2424203210
  2         -0.4156854077   -0.2398249290    0.2871789324   -0.2464796203
  3         -0.4412552402   -0.2379720642    0.2899127187   -0.2499011370
  4         -0.4517265951   -0.2371980236    0.2908966173   -0.2514141636
  5         -0.4557775773   -0.2369735141    0.2911607883   -0.2519713623
  6         -0.4573363459   -0.2369240355    0.2912108681   -0.2521663171
  7         -0.4579443228   -0.2369187864    0.2912112833   -0.2522344454
  8         -0.4581858602   -0.2369215483    0.2912049187   -0.2522587615
  9         -0.4582834939   -0.2369242589    0.2912002081   -0.2522677042
 10         -0.4583235236   -0.2369258837    0.2911975892   -0.2522710965
 11         -0.4583401154   -0.2369267223    0.2911962825   -0.2522724192
 12         -0.4583470483   -0.2369271266    0.2911956643   -0.2522729467
 13         -0.4583499624   -0.2369273145    0.2911953803   -0.2522731607
 14         -0.4583511926   -0.2369274000    0.2911952521   -0.2522732486
 15         -0.4583517136   -0.2369274385    0.2911951948   -0.2522732850
 16         -0.4583519349   -0.2369274556    0.2911951693   -0.2522733002
 17         -0.4583520290   -0.2369274632    0.2911951581   -0.2522733066
Atom SCF converged after  17 iterations to a total energy of     -0.45835203

Atom SCF Calculation for Li : Z (AE atom) =   3 : Z (PS atom) =   3
Config String: 1s2 2s1 2p0
Orbitals (num,occ):  3     2.00 1.00 0.00
Orbitals   (num,l):  3        0    0    1
Real-space Grid (nr,dr,rmax): 1377    0.0065406977    9.0000000000
Spherical Bessel Basis (nsws,lmax,cutoff):   37    2  183.0099912382
Confining potential (l,width,scale):  0    3.0000000000  100.0000000000
Confining potential (l,width,scale):  1    3.0000000000  100.0000000000
  1         -6.0640888065   -4.6655401716    2.5388576516   -0.9989538799
  2         -6.9627542978   -4.0954079129    2.9808988108   -1.1965571426
  3         -7.2692687601   -3.8889996707    3.2029735703   -1.3193883705
  4         -7.3784440298   -3.8322099748    3.2868571989   -1.3711018151
  5         -7.4170278248   -3.8191968371    3.3144974220   -1.3911175539
  6         -7.4303549880   -3.8172386945    3.3228486489   -1.3986896266
  7         -7.4348052089   -3.8175483495    3.3251259310   -1.4015352495
  8         -7.4362242328   -3.8180607346    3.3256233205   -1.4026016384
  9         -7.4366459715   -3.8184145665    3.3256561549   -1.4029998726
 10         -7.4367560626   -3.8186169740    3.3256001574   -1.4031477379
 11         -7.4367765260   -3.8187239825    3.3255481763   -1.4032021548
 12         -7.4367751741   -3.8187782620    3.3255144587   -1.4032219192
 13         -7.4367707398   -3.8188051288    3.3254952336   -1.4032289600
 14         -7.4367680349   -3.8188156035    3.3254870176   -1.4032309087
 15         -7.4367661982   -3.8188217406    3.3254819951   -1.4032318132
 16         -7.4367650112   -3.8188253257    3.3254789583   -1.4032322224
 17         -7.4367642682   -3.8188274151    3.3254771375   -1.4032324006
 18         -7.4367638134   -3.8188286307    3.3254760529   -1.4032324736
 19         -7.4367635392   -3.8188293370    3.3254754103   -1.4032325004
 20         -7.4367633760   -3.8188297469    3.3254750310   -1.4032325080
 21         -7.4367632796   -3.8188299846    3.3254748079   -1.4032325082
Atom SCF converged after  21 iterations to a total energy of     -7.43676328

Determining parallel strategy ...
... using space-filling curve
... NGWF load balancing: max     17;  min     13;  average     15
... Projector load balancing: max     34;  min     26;  average     29
... done
Calculating Ewald energy ...
              Ewald: real-space energy =   36403.183314
        Ewald: reciprocal-space energy =   35760.918895
         Ewald: (sum_charge)**2 Energy =    2823.101276
         Ewald: (sum_charge**2) Energy =     251.145732
                          Ewald Energy =   69089.855201
======================= Empirical dispersion information =======================
Model : Grimme D2
Dispersion Correction Energy: -0.22103098E+01 Hartree
================================================================================
Basis initialisation ...... NGWF spheres initialised
... Projector spheres initialised
... NGWF tight boxes initialised
... Projector tight boxes initialised
... Tight-boxes gathered
... NGWF basis size (local,global):     285057  42337294
... PAW projector initialisation
... done

============================= Charge Augmentation ==============================
                           Aug box size:   13 x  13 x  13
================================================================================

========================== Sparse matrix information ===========================
                        Overlap matrix filling:  37.71%
                        Density kernel filling: 100.00%
              NGWF-Proj overlap matrix filling:  10.60%
                    Aug Overlap matrix filling:  41.77%
                    Hamiltonian matrix filling:  41.77%
                  NGWF diagonal matrix filling:   0.18%
                             KS matrix filling: 100.00% 
                           KSKS matrix filling: 100.00% 
================================================================================

Sparse matrix initialisation ... done
NGWF initialisation ...... done
============ Calculation of NGWF S^-1 using Hotelling algorithm ================ 
         Iteration  |  Frobenius norm and Maximum abs value    (of I-S*S_n^-1)   
               1       0.46503624E+02     0.99630439E+00
               2       0.46185899E+02     0.99263129E+00
               3       0.45600825E+02     0.98535059E+00
               4       0.44597206E+02     0.97103834E+00
               5       0.43056953E+02     0.94332390E+00
               6       0.40987548E+02     0.89103124E+00
               7       0.38458320E+02     0.79783609E+00
               8       0.35516295E+02     0.77925246E+00
               9       0.32388619E+02     0.75569424E+00
              10       0.29364032E+02     0.74014385E+00
              11       0.26185148E+02     0.72760200E+00
              12       0.22195837E+02     0.71001446E+00
              13       0.16983210E+02     0.68044080E+00
              14       0.10874511E+02     0.63161380E+00
              15       0.54666374E+01     0.55201404E+00
              16       0.25185385E+01     0.42860953E+00
              17       0.14891143E+01     0.26417926E+00
              18       0.85920494E+00     0.13892409E+00
              19       0.34531171E+00     0.64030265E-01
              20       0.65963743E-01     0.13633863E-01
              21       0.28389989E-02     0.61848533E-03
              22       0.56653861E-05     0.12730125E-05
              23       0.22898499E-10     0.54034555E-11
              24       0.47924618E-13     0.48849813E-14
================================================================================
Calculating core density ...
================================= Core Density =================================
               Core den box size:   21 x  21 x  21
================================================================================
 ... done
Up spin density kernel initialisation ...... done

Writing density kernel to file "30/592nano.dkn" ... done

>>> Optimising kernel for current NGWFs:

--------------------------- Ensemble-DFT optimisation --------------------------
Running ScaLAPACK on  150 processor(s).

--------------------------------------------------------------------------------
  Iter                              Commutator    Free_energy(A=E-TS)     DeltaA
#    0                          0.001165663668   -3042.63329868504115  -3.04E+03

Step                       =       0.381966011250
Energy                     =   -3042.611827765323
Entropy (-TS)              =      -0.021470919329
Free energy (A=E-TS)       =   -3042.633298685041
Est. 0K Energy 0.5*(E+A)   =   -3042.622563225182
Residual Non-orthogonality =       0.000000000000
Residual N_electrons       =      -0.000000000389

Spin          Integrated_Ne            Fermi_level     Delta_Fermi_level
   1      2133.999999998352        -0.235954159387             -2.36E-01

                           Spin 1          
     Orb      H-eigenvalues     Occupancies
       1 |    -1.9115569842    1.0000000000 | 
                          ------
    1063 |    -0.2528495451    0.9952038834 | 
    1064 |    -0.2520276595    0.9937915124 | 
    1065 |    -0.2491832350    0.9848935516 | 
    1066 |    -0.2434967000    0.9154247145 | 
    1067 |    -0.2343016001    0.3724227856 | 
                 - Gap at zero temperature -
    1068 |    -0.2330881807    0.2880231527 | 
    1069 |    -0.2310617510    0.1758240222 | 
    1070 |    -0.2284717322    0.0860565755 | 
    1071 |    -0.2282676869    0.0811222250 | 
    1072 |    -0.2252279850    0.0327023873 | 
                          ------
    2194 |     0.5601490600    0.0000000000 | 

                       |  Abs_value |  Threshold | Converged
     Delta_Free_energy |   3.04E+03 |   1.00E-06 |        No
     Delta_Energy      |   3.04E+03 |   1.00E-04 |        No
     Delta_Entropy     |   2.15E-02 |   1.00E-04 |        No
     Commutator        |   1.17E-03 |   1.00E-05 |        No
     Delta_Fermi_level |   2.36E-01 |   1.00E-03 |        No

  Line search of the free energy minimum:
  Step_type        Step             Free_energy   Predicted_free_energy
.   Initial    0.000000    -3042.63329868504115
.    Trial1    0.381966    -3042.65725251757476
.    Trial2    0.618034    -3039.28400419205946
. Quadratic    0.192333    -3043.46926125765640    -3043.49233109228362

--------------------------------------------------------------------------------
  Iter                              Commutator    Free_energy(A=E-TS)     DeltaA
#    1                          0.000691992388   -3043.46926125765640  -8.36E-01

Step                       =       0.192333272419
Energy                     =   -3043.438023093839
Entropy (-TS)              =      -0.031238164207
Free energy (A=E-TS)       =   -3043.469261257656
Est. 0K Energy 0.5*(E+A)   =   -3043.453642175748
Residual Non-orthogonality =       0.000000000000
Residual N_electrons       =       0.000000000390

Spin          Integrated_Ne            Fermi_level     Delta_Fermi_level
   1      2134.000000001812        -0.215173210998              2.08E-02

                           Spin 1          
     Orb      H-eigenvalues     Occupancies
       1 |    -1.9061071866    1.0000000000 | 
                          ------
    1063 |    -0.2269810413    0.9765376904 | 
    1064 |    -0.2230676130    0.9236394157 | 
    1065 |    -0.2212576476    0.8722847994 | 
    1066 |    -0.2166135962    0.6117888222 | 
    1067 |    -0.2159163000    0.5583945491 | 
                 - Gap at zero temperature -
    1068 |    -0.2146439631    0.4583161578 | 
    1069 |    -0.2125255128    0.3023616572 | 
    1070 |    -0.2085968597    0.1113873568 | 
    1071 |    -0.2072788688    0.0763619176 | 
    1072 |    -0.2067812545    0.0659908346 | 
                          ------
    2194 |     0.5881044177    0.0000000000 | 

                       |  Abs_value |  Threshold | Converged
     Delta_Free_energy |   8.36E-01 |   1.00E-06 |        No
     Delta_Energy      |   8.26E-01 |   1.00E-04 |        No
     Delta_Entropy     |   9.77E-03 |   1.00E-04 |        No
     Commutator        |   6.92E-04 |   1.00E-05 |        No
     Delta_Fermi_level |   2.08E-02 |   1.00E-03 |        No

  Line search of the free energy minimum:
  Step_type        Step             Free_energy   Predicted_free_energy
.   Initial    0.000000    -3043.46926125765640
.    Trial1    0.192333    -3043.60743418011543
.    Trial2    0.500835    -3041.52904797354722
. Quadratic    0.120297    -3043.67726668134719    -3043.68468179941055

--------------------------------------------------------------------------------
  Iter                              Commutator    Free_energy(A=E-TS)     DeltaA
#    2                          0.000535256328   -3043.67726668134719  -2.08E-01

Step                       =       0.120296734399
Energy                     =   -3043.647824816674
Entropy (-TS)              =      -0.029441864875
Free energy (A=E-TS)       =   -3043.677266681347
[...]
 C   423 -- C   459       -0.09      5.40150
 C    27 -- C    29       -0.09      5.40158
 C   190 -- C   300       -0.09      5.40163
 C    82 -- C   116       -0.09      5.40176
 C    22 -- C   250       -0.09      5.40194
 C    53 -- C    63       -0.09      5.40206
 C   408 -- C   416       -0.09      5.40233
 C   253 -- C   413       -0.10      5.40238
 C    11 -- C   431       -0.09      5.40239
 H   165 -- Li  602       -0.03      5.40240
 C   306 -- C   354       -0.09      5.40242
 C   210 -- C   280       -0.09      5.40244
 C   345 -- C   351       -0.09      5.40245
 C   349 -- C   363       -0.09      5.40300
 C   266 -- C   452       -0.09      5.40339
 C   226 -- C   382       -0.09      5.40375
 C   315 -- C   349       -0.09      5.40375
 C    48 -- C    62       -0.09      5.40389
 C    33 -- C    43       -0.09      5.40403
 C    52 -- C   338       -0.10      5.40409
 C     3 -- C   447       -0.09      5.40415
 C    38 -- C    56       -0.09      5.40420
 C   105 -- C   111       -0.09      5.40432
 C   226 -- C   304       -0.09      5.40437
 C   209 -- C   223       -0.09      5.40444
 C   198 -- C   224       -0.08      5.40449
 C   245 -- C   267       -0.09      5.40472
 C   213 -- C   313       -0.09      5.40472
 C   507 -- Li  621       -0.06      5.40476
 C    55 -- C    61       -0.09      5.40502
 C   221 -- C   243       -0.09      5.40510
 C    30 -- C   120       -0.09      5.40553
 C   201 -- C   303       -0.09      5.40560
 C   105 -- C   477       -0.09      5.40568
 C   248 -- C   298       -0.09      5.40617
 C    86 -- C   482       -0.09      5.40621
 C    49 -- C    59       -0.09      5.40634
 C    82 -- C   492       -0.09      5.40634
 C    54 -- C   360       -0.09      5.40643
 C    39 -- C    45       -0.09      5.40647
 C   115 -- C   479       -0.09      5.40657
 C   109 -- C   123       -0.09      5.40692
 C   339 -- C   497       -0.10      5.40706
 C   330 -- C   382       -0.09      5.40712
 C   354 -- C   384       -0.09      5.40723
 C     9 -- C   433       -0.09      5.40730
 C    96 -- C   567       -0.09      5.40731
 C    68 -- C   556       -0.10      5.40734
 C    96 -- C   126       -0.09      5.40741
 C   243 -- C   347       -0.09      5.40754
 C   207 -- C   225       -0.09      5.40754
 C    64 -- C   366       -0.09      5.40771
 C   205 -- C   263       -0.08      5.40783
 C   262 -- C   460       -0.09      5.40813
 C   409 -- C   455       -0.09      5.40840
 C     9 -- C    15       -0.09      5.40857
 C    25 -- C   437       -0.09      5.40890
 C   431 -- C   441       -0.10      5.40899
 C    37 -- C   367       -0.09      5.40902
 C   407 -- C   457       -0.09      5.40925
 C   420 -- C   444       -0.08      5.40929
 C    83 -- C    85       -0.08      5.40945
 C   212 -- C   230       -0.08      5.40953
 C    88 -- C   547       -0.08      5.40957
 C   231 -- C   323       -0.10      5.40965
 C    72 -- C   102       -0.08      5.40984
 C    85 -- C    95       -0.09      5.40987
 C   191 -- C   221       -0.09      5.40991
 C   316 -- C   374       -0.09      5.41021
 C   210 -- C   296       -0.09      5.41033
 C     1 -- C     7       -0.09      5.41050
 C   252 -- C   406       -0.10      5.41060
 C   293 -- C   295       -0.08      5.41066
 C    62 -- C   368       -0.09      5.41075
 C   261 -- C   427       -0.10      5.41083
 C   229 -- C   373       -0.09      5.41087
 C   143 -- C   219       -0.07      5.41090
 C   186 -- C   192       -0.09      5.41118
 C   435 -- C   445       -0.09      5.41156
 C   216 -- C   234       -0.08      5.41230
 C   193 -- C   219       -0.09      5.41238
 C    88 -- C   118       -0.09      5.41261
 C   466 -- C   538       -0.10      5.41271
 C    97 -- C   123       -0.09      5.41310
 C   427 -- C   445       -0.08      5.41328
 C   111 -- C   121       -0.09      5.41335
 C   477 -- C   485       -0.09      5.41335
 C   358 -- C   388       -0.09      5.41370
 C   272 -- C   294       -0.09      5.41411
 C    80 -- C   556       -0.08      5.41461
 C   444 -- C   492       -0.08      5.41487
 C    84 -- C   114       -0.09      5.41489
 C    40 -- C    54       -0.09      5.41506
 C    75 -- C    77       -0.08      5.41520
 C   262 -- C   292       -0.09      5.41533
 C   252 -- C   286       -0.07      5.41563
 C   330 -- C   394       -0.09      5.41608
 C    39 -- C   516       -0.08      5.41609
 C   113 -- C   481       -0.09      5.41639
 C   318 -- C   380       -0.08      5.41640
 C   413 -- C   441       -0.08      5.41647
 C   188 -- C   286       -0.08      5.41672
 C   206 -- C   304       -0.09      5.41672
 C   182 -- C   188       -0.10      5.41677
 C    13 -- C    43       -0.09      5.41686
 C    87 -- C    93       -0.09      5.41739
 C   185 -- C   299       -0.09      5.41760
 C   231 -- C   241       -0.08      5.41773
 C    99 -- C   121       -0.09      5.41800
 C   237 -- C   275       -0.09      5.41813
 C    71 -- C   516       -0.09      5.41845
 C    67 -- C    89       -0.08      5.41900
 C    35 -- C   497       -0.08      5.42054
 C    70 -- C   104       -0.08      5.42090
 C    35 -- C    41       -0.09      5.42107
 C   181 -- C   287       -0.08      5.42253
 C   229 -- C   235       -0.09      5.42293
 C    80 -- C   538       -0.08      5.42329
 C   186 -- C   212       -0.08      5.42358
 C   202 -- C   208       -0.09      5.42384
 C   342 -- C   388       -0.08      5.42409
 C    73 -- C    79       -0.08      5.42464
 C   479 -- C   491       -0.07      5.42475
 C   430 -- C   480       -0.08      5.42494
 C   204 -- C   294       -0.08      5.42520
 C   199 -- C   241       -0.08      5.42581
 C    97 -- C   523       -0.07      5.42603
 C    53 -- C   395       -0.09      5.42740
 C   445 -- C   467       -0.08      5.42748
 C   189 -- C   191       -0.08      5.42772
 C   227 -- C   309       -0.09      5.42778
 C   242 -- C   328       -0.08      5.42885
 C   285 -- C   287       -0.08      5.42892
 H   426 -- Li  600       -0.03      5.42902
 C   416 -- C   476       -0.08      5.42916
 C   230 -- C   318       -0.09      5.42963
 C   220 -- C   238       -0.08      5.42969
 C   205 -- C   207       -0.09      5.42985
 C    39 -- C   506       -0.07      5.43067
 C    40 -- C   102       -0.08      5.43082
 C   316 -- C   390       -0.08      5.43180
 C   238 -- C   314       -0.08      5.43182
 C    34 -- C   100       -0.08      5.43189
 C    81 -- C    87       -0.08      5.43277
 C   202 -- C   216       -0.08      5.43321
 C   385 -- C   395       -0.08      5.43431
 C    77 -- C    91       -0.08      5.43436
 C   189 -- C   255       -0.08      5.43486
 C    65 -- C    91       -0.08      5.43588
 C    36 -- C    98       -0.08      5.43592
 C   409 -- C   485       -0.08      5.43722
 C    38 -- C   104       -0.08      5.43810
 C   333 -- C   365       -0.07      5.43828
 C   422 -- C   430       -0.08      5.43829
 C   440 -- C   488       -0.08      5.43881
 C   470 -- C   547       -0.09      5.43914
 C   224 -- C   242       -0.08      5.43942
 C    84 -- C   567       -0.08      5.44002
 C   254 -- C   284       -0.07      5.44050
 H   581 -- Li  610       -0.02      5.44078
 C    76 -- C   564       -0.07      5.44125
 H   372 -- Li  609       -0.03      5.44279
 C   190 -- C   284       -0.08      5.44374
 C   206 -- C   292       -0.07      5.44409
 C    56 -- C   342       -0.09      5.44439
 H   326 -- Li  616       -0.02      5.44445
 C    79 -- C    89       -0.08      5.44560
 C   319 -- C   361       -0.07      5.44593
 C   183 -- C   237       -0.07      5.44633
 H   174 -- Li  607       -0.02      5.44715
 C   233 -- C   239       -0.08      5.44758
 C   185 -- C   235       -0.07      5.44759
 C   423 -- C   489       -0.08      5.44817
 C   377 -- C   391       -0.07      5.44830
 C   368 -- C   394       -0.07      5.45001
 C    92 -- C   564       -0.07      5.45009
 C    51 -- C   521       -0.08      5.45078
 C    35 -- C   511       -0.07      5.45107
 C   198 -- C   204       -0.08      5.45369
 C   481 -- C   489       -0.07      5.45389
 C   201 -- C   239       -0.07      5.45406
 C   103 -- C   525       -0.07      5.45502
 C   368 -- Li  621       -0.04      5.45619
 C   197 -- C   199       -0.08      5.45815
 C    99 -- C   521       -0.07      5.45946
 C    55 -- C   525       -0.07      5.46125
 C    72 -- C   560       -0.08      5.46330
 C   343 -- C   506       -0.08      5.46396
 H   141 -- Li  596       -0.03      5.46748
 C    83 -- C   467       -0.08      5.47037
 C   234 -- C   332       -0.08      5.47162
 C    75 -- C   463       -0.08      5.47408
 C    72 -- Li  615       -0.08      5.47452
 C   260 -- C   420       -0.08      5.47504
 H   509 -- Li  610       -0.03      5.47504
 H   588 -- Li  596       -0.03      5.48186
 C   181 -- C   183       -0.08      5.48452
 C    67 -- C   511       -0.08      5.48501
 C    67 -- Li  619       -0.08      5.49413
 C   395 -- Li  616       -0.07      5.49713
 H   131 -- Li  617       -0.02      5.51201
 H   586 -- Li  618       -0.01      5.51281
 C   234 -- Li  608       -0.08      5.51359
 H   132 -- Li  617       -0.02      5.57915
 C   169 -- Li  622       -0.08      5.58098
 C   512 -- C   516       -0.04      5.59567
 H   581 -- Li  615       -0.01      5.60623
 H   146 -- Li  604       -0.02      5.60627
 C   525 -- H   586       -0.02      5.61507
 H   590 -- Li  613       -0.02      5.62236
 C   181 -- Li  594       -0.08      5.62242
 H   591 -- Li  607       -0.02      5.62281
 H   505 -- Li  621       -0.02      5.62849
 C   205 -- Li  622       -0.05      5.63451
 H   583 -- Li  600       -0.02      5.63783
 H   582 -- Li  604       -0.02      5.64401
 H   554 -- Li  612       -0.01      5.64564
 H   532 -- Li  611       -0.02      5.64669
 C   134 -- Li  598       -0.07      5.65212
 H   159 -- Li  602       -0.02      5.66022
 H   371 -- Li  609       -0.01      5.66084
 C   420 -- Li  600       -0.07      5.66296
 H   400 -- Li  621       -0.01      5.66385
==================================================


=================== Orbital energy and occupancy information ===================

      Total number of orbitals:    2194
        Occupancy sum (kernel):    1067.000000001
   Occupancy sum (eigenvalues):    1067.000000001
                 HOMO-LUMO gap:       0.000605360 Eh
                 Mid-gap level:      -0.068111289 Eh

                        Orbital | Energy (Eh) | Occupancy
                            1    -1.882945978   1.0000000
                        .......   ...........   .........
                         1059    -0.087279988   0.9949122
                         1060    -0.086719771   0.9939834
                         1061    -0.085007255   0.9896972
                         1062    -0.084077845   0.9861623
                         1063    -0.083250610   0.9822008
                         1064    -0.078173348   0.9170656
                         1065    -0.076930216   0.8816939
                         1066    -0.072446931   0.6435402
                         1067    -0.070937057   0.5283733
                         1068    -0.068413970   0.3355005
                        ....... -- gap at 0K -- .........
                         1069    -0.067808609   0.2940704
                         1070    -0.064372833   0.1231449
                         1071    -0.063992688   0.1113268
                         1072    -0.063344264   0.0920978
                         1073    -0.061772653   0.0582889
                         1074    -0.059663799   0.0308231
                         1075    -0.059203281   0.0267143
                         1076    -0.054082939   0.0053965
                         1077    -0.052629990   0.0034126
                         1078    -0.051838976   0.0026545
                        .......   ...........   .........
                         2194     0.789646431   0.0000000

================================================================================

===================== Writing canonical molecular orbitals =====================
| Orbital  Energy (eV)  Norm     |
| HOMO     -1.86163884  1.000000 | Writing "30/592nano_HOMO.cube" ... done
Writing "30/592nano_HOMO.dx" ... done
| LUMO     -1.84516615  1.000000 | Writing "30/592nano_LUMO.cube" ... done
Writing "30/592nano_LUMO.dx" ... done
================================================================================

================== Local Density of States (LDOS) calculation ==================
Writing "30/592nano_LDOS.txt" ...  done
================================================================================
 
===================== Density of States (DOS) calculation ======================
Writing "30/592nano_DOS.txt" ...  done
================================================================================
 
Writing bands to file "30/592nano.val_bands" ... done
 
================ Projected Density of States (pDOS) calculation ================
 
Constructing AM resolved functions  ...... done
Writing NGWF plot files in formats: CUBE DX ...  done
 
Performing overlap integrals ...  done
 
Computing pDOS weights ...  done
 
All bands spilling parameter =   3.27 %
Occupancy-weighted spilling parameter =   0.88 %
 
 => Outputting data for OptaDOS <=
 
Writing pDOS weights to file "30/592nano.val_pdos_bin" ... done
 
Writing band gradients to file "30/592nano.val_dome_bin" ... done
 
Writing Castep output cell file to "30/592nano-out.cell" ... done
 
 => Computing Gaussian smeared pDOS <= 
Writing "30/592nano_PDOS.txt" ...  done
 
 => Computing Occupancy-weighted Gaussian smeared pDOS <= 
Writing "30/592nano_occ_PDOS.txt" ...  done
  => Band centres: 
 S band centre of group 1:  -17.602752 eV
 P band centre of group 1:   -8.148712 eV
  Band centres done. <=
  => Integrated number of electrons in each AM band: 
 S num electrons of group 1:  590.160942
 P num electrons of group 1: 1525.047049
  Integrated number of electrons done. <=
================================================================================

------------------------------ TIMING INFORMATION ------------------------------
AVERAGE TIME:    8256.435s on    150 node(s)                                    
TOTAL TIME:      8256.436s on    150 node(s)                                    
================= AVERAGE TIMINGS FROM ALL NODES (CUMULATIVE) ==================
|| TAG                                    #calls    cpu time   %total  Gflops ||
|| work_imbalance                       :     1        0.00s   0.000%  ------ ||
|| sparse_set_to_garbage                :   159        0.01s   0.000%  ------ ||
|| paw_sphere_density_on_grid           :     1        0.01s   0.000%  ------ ||
|| paw_tcore_density                    :     1        0.01s   0.000%  ------ ||
|| basis_extract_function_from_box      :   409        0.02s   0.000%  ------ ||
|| paw_dij_hartree                      :   886        0.03s   0.000%  ------ ||
|| ngwfs_initialise_from_radial         :     2        0.04s   0.001%  ------ ||
|| ewald_calculate_energy               :     1        0.13s   0.002%  ------ ||
|| density_init_guess_real              :     1        0.13s   0.002%  ------ ||
|| paw_tcore_hartree_on_grid            :     1        0.40s   0.005%  ------ ||
|| pseudo_make_structure_factor         :     1        0.45s   0.005%  ------ ||
|| paw_dataset_init                     :     3        0.47s   0.006%  ------ ||
|| restart_kernel_write                 :    15        0.77s   0.009%  ------ ||
|| sparse_init                          :     1        0.92s   0.011%  ------ ||
|| dense_normal_eigensolve              :     1        1.00s   0.012%  ------ ||
|| paw_species_calc_proj_prec_mat       :     1        1.89s   0.023%  ------ ||
|| sparse_embed_hotelling_invert_embed  :    27        6.44s   0.078%  ------ ||
|| fourier_apply_box_pair               :   613        7.02s   0.085%  2.162k ||
|| ngwf_gradient_coeffs                 :    14        7.31s   0.088%  ------ ||
|| sw_init                              :     1        7.53s   0.091%  ------ ||
|| augmentation_screen_dij              :   664       13.68s   0.166%  ------ ||
|| basis_copy_function_to_box           : 13500       14.25s   0.173%  ------ ||
|| paw_dij_xc                           :   886       18.88s   0.229%  ------ ||
|| hartree_on_grid                      :   659       25.61s   0.310%  ------ ||
|| projectors_init_fftbox_recip         :    85       26.69s   0.323%  ------ ||
|| function_ops_brappd_ketppd           :    56       32.06s   0.388%  ------ ||
|| integrals_kinetic                    :    27       37.13s   0.450%  ------ ||
|| projectors_func_ovlp_box             :    28       40.15s   0.486%  ------ ||
|| eigenstates_pdos                     :     1       42.81s   0.519%  ------ ||
|| hamiltonian_energy_components        :     3       47.47s   0.575%  ------ ||
|| augmentation_density_on_grid         :   659       51.54s   0.624%  ------ ||
|| fourier_apply_cell_backward          :  3292       56.69s   0.687% 202.108 ||
|| sparse_trace                         :  8260       56.88s   0.689%  ------ ||
|| fourier_apply_cell_forward           :  3291       57.73s   0.699% 198.422 ||
|| aug_nonlocal_mat                     :   872       62.79s   0.760%  ------ ||
|| basis_dot_function_with_box          : 3.039M      83.49s   1.011%  ------ ||
|| eigenstates_calculate                :     1       84.05s   1.018%  ------ ||
|| xc_energy_potential                  :   658      103.65s   1.255%  ------ ||
|| restart_ngwfs_tightbox_output        :    13      145.82s   1.766%  ------ ||
|| dense_eigensolve                     :   628      186.14s   2.254%  ------ ||
|| sparse_product                       :  7350      222.06s   2.689%  ------ ||
|| basis_add_function_to_box            : 8.652M     230.95s   2.797%  ------ ||
|| cell_grid_deposit_box_real           : 24432      275.10s   3.332%  ------ ||
|| cell_grid_extract_box_real           :  7566      287.18s   3.478%  ------ ||
|| projectors_gradient_batch            :    28      320.49s   3.882%  ------ ||
|| integrals_locpot_mat_els_batch       :   444      395.50s   4.790%  ------ ||
|| density_fftbox_deposit_to_cell       : 11203      456.69s   5.531%  ------ ||
|| projectors_grad_precond_batch        :    28      457.54s   5.542%  ------ ||
|| edft_diag_ngwf_ham                   :   627      637.22s   7.718%  ------ ||
|| density_batch_row_sums               :  1318      731.80s   8.863%  ------ ||
|| properties_calculate                 :     1      739.22s   8.953%  ------ ||
|| potential_apply_to_ngwf_batch        :   444      768.13s   9.303%  ------ ||
|| ngwf_gradient_build_batch            :    28      858.33s  10.396%  ------ ||
|| ngwf_gradient_batch                  :    28      937.00s  11.349%  ------ ||
|| fourier_apply_box                    : 42527     1029.59s  12.470%  3.324k ||
|| density_fftbox_interpolate_multiply  : 11203     1139.43s  13.800%  ------ ||
|| edft_apply_smearing_operator         :   627     1165.55s  14.117%  ------ ||
|| integrals_locpot_dbl_grid            :   222     1169.28s  14.162%  ------ ||
|| ngwf_gradient_lnv                    :    14     1215.73s  14.725%  ------ ||
|| density_batch_interp_deposit         :  1318     2026.99s  24.550%  ------ ||
|| density_on_dbl_grid                  :   659     2879.35s  34.874%  ------ ||
|| hamiltonian_lhxc_calculate           :   654     3257.58s  39.455%  ------ ||
|| edft_calculate                       :    14     5700.79s  69.047%  ------ ||
|| ngwf_cg_optimise                     :     1     7502.26s  90.866%  ------ ||
|| total_time                           :     1     8256.44s 100.000%  ------ ||
================================================================================
Overhead of generating timer report: 
- 0 ms averaging over threads,
- 21 ms ensuring consistency across MPI ranks,
- 0 ms printing in order.

Job completed: 09-07-2020 22:57 (+0100)

