 +---------------------------------------------------------------+
 |                                                               |
 |        ####### #     # ####### ####### ####### ######         |
 |        #     # ##    # #          #    #       #     #        |
 |        #     # # #   # #          #    #       #     #        |
 |        #     # #  #  # #####      #    #####   ######         |
 |        #     # #   # # #          #    #       #              |
 |        #     # #    ## #          #    #       #              |
 |        ####### #     # #######    #    ####### #              |
 |                                                               |
 |        Linear-Scaling Ab Initio Total Energy Program          |
 |                                                               |
 |          Release for academic collaborators of ODG            |
 |                                             Version 5.3.2.12  |
 |                                                               |
 +---------------------------------------------------------------+
 |                                                               |
 |  Authors:                                                     |
 |  Jacek Dziedzic, Peter D. Haynes, Nicholas D. M. Hine,        |
 |  Arash. A. Mostofi, Mike C. Payne and Chris-Kriton Skylaris   |
 |                                                               |
 |  Contributors:                                                |
 |  J. Aarons, L. Andrinopoulos, P. W. Avraam, R. A. Bell,       |
 |  A. Bhandari, G. A. Bramley, R. J. Charlton, S. J. Clark,     |
 |  R. J. Clements, G. C. Constantinescu, F. Corsetti,           |
 |  N. Corsini, O. Dieguez, S. M. M. Dubois, K. K. B. Duff,      |
 |  J. M. Escartin, A. Greco, H. Helal, Q. O. Hill, L. P. Lee,   |
 |  J.-H. Li, E. B. Linscott, G. Moynihan, D. D. O`Regan,        |
 |  O. K. Okan, M. J. S. Phipps, C. J. Pickard,                  |
 |  J. C. A. Prentice, M. I. J. Probert, L. E. Ratcliff,         |
 |  M. Robinson, A. Ruiz Serrano, J. S. Spencer, E. W. Tait,     |
 |  G. Teobaldi, D. Turban, V. Vitale, K. A. Wilkinson,          |
 |  C. Weber, J. C. Womack, N. Yeung and T. J. Zuehlsdorff       |
 |                                                               |
 |                                   Copyright (c) 2004-2020     |
 |                                                               |
 |  Please cite:                                                 |
 |  "Introducing ONETEP: Linear-scaling density functional       |
 |   simulations on parallel computers".                         |
 |   C.-K. Skylaris, P. D. Haynes, A. A. Mostofi, M. C. Payne.   |
 |   J. Chem. Phys. 122 084119 (2005).                           |
 |                                                               |
 |          in all publications arising from your use of ONETEP. |
 |                                                               |
 +---------------------------------------------------------------+
 |                                                               |
 |   ONETEP is based on developments described in the following  |
 |   publications:                                               |
 |                                                               |
 |  "Nonorthogonal generalized Wannier function pseudopotential  |
 |   plane-wave method".                                         |
 |   C.-K. Skylaris, A. A. Mostofi, P. D. Haynes, O. Dieguez,    |
 |   M. C. Payne.                                                |
 |   Phys. Rev. B 66 035119 (2002).                              |
 |                                                               |
 |  "Preconditioned iterative minimization for linear-scaling    |
 |   electronic structure calculations".                         |
 |   A. A. Mostofi, P. D. Haynes, C.-K. Skylaris, M. C. Payne.   |
 |   J. Chem. Phys. 119(17), pp.8842-8848 (2003).                |
 |                                                               |
 |  "Total-energy calculations on a real space grid with         |
 |   localized functions and a plane-wave basis".                |
 |   A. A. Mostofi, C.-K. Skylaris, P. D. Haynes, M. C. Payne.   |
 |   Comput. Phys. Commun. 147, pp.788-802 (2002).               |
 |                                                               |
 |  "Accurate kinetic energy evaluation in electronic structure  |
 |   calculations with localized functions on real space grids"  |
 |   C.-K. Skylaris, A. A. Mostofi, P. D. Haynes, C. J. Pickard, |
 |   M. C. Payne.                                                |
 |   Comput. Phys. Commun. 140, pp.315-322 (2001).               |
 |                                                               |
 |  "Accurate ionic forces and geometry optimization in linear-  |
 |   scaling density-functional theory with local orbitals"      |
 |   N. D. M. Hine, M. Robinson, P. D. Haynes, C.-K. Skylaris,   |
 |   M. C. Payne, and A. A. Mostofi.                             |
 |   Phys. Rev. B 83 195102 (2011).                              |
 |                                                               |
 +---------------------------------------------------------------+

Job started: 13-08-2020 06:09 (+0100)
 
Reading parameters from file "6/592nano.dat" ...... done

If your calculation crashes here, before "Checking processes and threads..."
is displayed, then your stack size is insufficient.
If so, use "ulimit -s unlimited" at runtime.
You can disable this check with "check_stack_size F".

Checking processes and threads...
   Determining the default number of threads...
      No default threads set at compilation time: defaulting to 1.
      OpenMP library call suggests 4 threads.
      Hybrid MPI-OpenMP compilation detected.
      Number of MPI processes > 1.
      OMP_NUM_THREADS environment variable present and
      its value matches the one obtained from the OpenMP library call.
      Using this value as default.
      Default threads: 4
      Default applies to threads_max and threads_num_fftboxes.
      Settings in the input file override this default.
   ... done

   Running with 160 MPI processes.
   There are 10 MPI processes running on the same node as the root process.
   Each MPI process is using: 
               1 threads for simulation cell FFTs.
               1 threads for parallel FFT box operations.
               4 threads for loops over batched FFT box operations.
               4 threads in other parallel regions.
... done

Basic input checks...
Resetting ngwf_cg_rotate to TRUE for EDFT calculations
... done

Reading geometry and species blocks from file "6/592nano.dat" ...    
  Number of PPD points along a3 set to 1.  This is 
  the default value, it may have been provided also in the input file.
... done
 Writing xyz coordinates to file "6/592nano.xyz" ... done


--------------------------------------------------------------------------------
---------------------------------- INPUT FILE ----------------------------------
--------------------------------------------------------------------------------

task : singlepoint                                                              
do_properties : true                                                            
ddec_classical_hirshfeld T                                                      
dx_format T                                                                     
edft T                                                                          
edft_spin_fix 3                                                                 
output_detail VERBOSE                                                           
write_xyz T                                                                     
dispersion 4                                                                    
xc_functional PBE                                                               
cutoff_energy 830 eV                                                            
paw T                                                                           
geom_disp_tol 0.015 bohr                                                        
geom_energy_tol 1.5E-6 hartree                                                  
geom_force_tol 0.003 "ha/bohr"                                                  
EDFT_MAXIT 30                                                                   
pdos_max_l = 2                                                                  
dos_smear  0.1 eV                                                               
popn_calculate T                                                                
PDOS_PSEUDOATOMIC T                                                             
PDOS_REDUCE_SWS F                                                               
PDOS_CONSTRUCT_BASIS F                                                          
PDOS_LOWDIN T                                                                   
PDOS_ORTH_ATOM_BLOCKS F                                                         
PDOS_LCAO_OPTIMIZE F                                                            
pdos_optados_output T                                                           
homo_plot 0                                                                     
lumo_plot 0                                                                     
homo_dens_plot -1                                                               
lumo_dens_plot -1                                                               
%BLOCK SPECIES                                                                  
C C 6 4 9.0                                                                     
H H 1 1 9.0                                                                     
Li Li 3 5 9.0                                                                   
%ENDBLOCK SPECIES                                                               
%BLOCK SPECIES_POT                                                              
C "~/pp/paw/c_pbe_abinit.paw"                                                   
H "~/pp/paw/h_pbe_abinit.paw"                                                   
Li "~/pp/paw/li_pbe_abinit.paw"                                                 
%ENDBLOCK SPECIES_POT                                                           
%BLOCK SPECIES_ATOMIC_SET                                                       
C "SOLVE conf=2s2 2p2"                                                          
H "SOLVE conf=1s1"                                                              
Li "SOLVE conf=1s2 2s1 2p0"                                                     
%ENDBLOCK SPECIES_ATOMIC_SET                                                    
%BLOCK SPECIES_LDOS_GROUPS                                                      
C                                                                               
H                                                                               
Li                                                                              
%ENDBLOCK SPECIES_LDOS_GROUPS                                                   
%BLOCK LATTICE_CART                                                             
94.486315650000      0.000000000000       0.000000000000                        
0.000000000000       94.486315650000      0.000000000000                        
0.000000000000       0.000000000000       94.486315650000                       
%ENDBLOCK LATTICE_CART                                                          
%BLOCK POSITIONS_ABS                                                            
C 45.490298 50.696340 30.726308                                                 
C 45.449633 50.622121 36.831448                                                 
C 46.833781 53.023188 30.715627                                                 
C 48.135132 50.622262 36.832521                                                 
C 49.524266 48.369123 30.723827                                                 
C 49.478667 48.295666 36.830361                                                 
C 50.867055 50.696167 30.701478                                                 
C 52.166949 48.295518 36.821967                                                 
C 45.489454 55.350775 30.714187                                                 
C 45.448219 55.273928 36.831512                                                 
C 46.833777 57.679162 30.699676                                                 
C 48.134314 55.274594 36.836779                                                 
C 49.521586 53.023165 30.697470                                                 
C 49.476713 52.948569 36.840166                                                 
C 50.864615 55.354216 30.650211                                                 
C 52.166046 52.947675 36.854257                                                 
C 45.420908 50.486283 42.973938                                                 
C 45.368220 50.420244 49.064275                                                 
C 46.761899 52.811469 42.978979                                                 
C 48.053550 50.419672 49.067222                                                 
C 49.455466 48.165227 42.969413                                                 
C 49.394020 48.090354 49.090257                                                 
C 50.798006 50.491581 42.980368                                                 
C 52.083213 48.090423 49.143807                                                 
C 45.415282 55.135047 42.960860                                                 
C 45.370724 55.077116 49.087058                                                 
C 46.759607 57.462783 42.942844                                                 
C 48.058320 55.075751 49.093665                                                 
C 49.449453 52.814849 42.989428                                                 
C 49.399514 52.746360 49.076230                                                 
C 50.793297 55.142197 43.005553                                                 
C 52.088368 52.745965 49.095867                                                 
C 57.599506 48.367244 30.683411                                                 
C 57.540782 48.289360 36.793820                                                 
C 58.940764 50.692995 30.633896                                                 
C 60.257542 48.292200 36.785228                                                 
C 57.531197 48.185465 42.895943                                                 
C 57.455405 48.082391 49.322577                                                 
C 58.876554 50.507010 42.934627                                                 
C 60.179870 48.093954 49.414129                                                 
C 53.557941 50.695242 30.675858                                                 
C 53.509173 50.622014 36.835265                                                 
C 54.899260 53.022997 30.599630                                                 
C 56.203196 50.620262 36.836847                                                 
C 53.489920 50.494568 42.980555                                                 
C 53.428395 50.416288 49.135553                                                 
C 54.832338 52.822322 43.012747                                                 
C 56.123232 50.413886 49.196679                                                 
C 57.603002 43.718549 30.708650                                                 
C 57.535805 43.629985 36.747442                                                 
C 58.940494 46.033873 30.695547                                                 
C 60.249439 43.646503 36.699551                                                 
C 57.531631 43.523727 42.797155                                                 
C 57.434097 43.404940 49.481473                                                 
C 58.871226 45.852362 42.737228                                                 
C 60.140293 43.429797 49.798908                                                 
C 53.561283 46.041183 30.716236                                                 
C 53.508178 45.966239 36.806676                                                 
C 54.903428 48.367029 30.693991                                                 
C 56.201270 45.966771 36.779253                                                 
C 53.494326 45.839208 42.948279                                                 
C 53.420497 45.755666 49.214518                                                 
C 54.838111 48.168029 42.950364                                                 
C 56.110220 45.756138 49.345188                                                 
C 57.587787 57.659244 30.235925                                                 
C 57.530546 57.603020 37.146599                                                 
C 58.921660 60.026457 29.945920                                                 
C 60.261229 57.574284 37.240364                                                 
C 57.515274 57.473394 43.121846                                                 
C 57.469882 57.403442 49.154443                                                 
C 58.849195 59.835841 43.191782                                                 
C 60.186748 57.377707 49.149059                                                 
C 45.477293 64.664947 30.707025                                                 
C 45.452914 64.583930 36.740130                                                 
C 46.849171 67.008999 30.724282                                                 
C 48.127288 64.589542 36.755171                                                 
C 49.518116 62.342129 30.653497                                                 
C 49.478038 62.264500 36.808312                                                 
C 50.879484 64.695708 30.641287                                                 
C 52.161423 62.266895 36.908036                                                 
C 45.384396 64.439032 42.686859                                                 
C 45.374443 64.384854 49.422337                                                 
C 46.761496 66.772350 42.395986                                                 
C 48.063837 64.377591 49.499578                                                 
C 49.440008 62.118470 42.862535                                                 
C 49.420304 62.057394 49.296719                                                 
C 50.808520 64.469780 42.797359                                                 
C 52.105977 62.063593 49.276308                                                 
C 53.550577 60.011601 30.460554                                                 
C 53.495980 59.940820 36.976108                                                 
C 54.901161 62.378824 30.359835                                                 
C 56.186514 59.932814 37.151984                                                 
C 53.477962 59.801594 43.047902                                                 
C 53.446865 59.737154 49.191481                                                 
C 54.826649 62.159555 43.086074                                                 
C 56.138603 59.725469 49.187186                                                 
C 57.595014 53.016523 30.558125                                                 
C 57.542611 52.946591 36.912521                                                 
C 58.934927 55.344750 30.389577                                                 
C 60.264673 52.937252 36.950126                                                 
C 57.528844 52.828189 43.014461                                                 
C 57.469001 52.742169 49.159336                                                 
C 58.863057 55.162151 43.079543                                                 
C 60.188349 52.731983 49.158531                                                 
C 45.486417 60.006491 30.705298                                                 
C 45.448628 59.928468 36.794900                                                 
C 46.833794 62.341157 30.695316                                                 
C 48.133640 59.930849 36.808668                                                 
C 49.521671 57.679680 30.658807                                                 
C 49.476154 57.603951 36.843786                                                 
C 50.866711 60.015612 30.604508                                                 
C 52.162338 57.603976 36.903376                                                 
C 45.408608 59.787533 42.898119                                                 
C 45.372107 59.736708 49.154541                                                 
C 46.754821 62.116998 42.816237                                                 
C 48.061923 59.734406 49.185420                                                 
C 49.445864 57.465529 42.974212                                                 
C 49.405481 57.405170 49.132541                                                 
C 50.790565 59.799100 42.968759                                                 
C 52.094634 57.404318 49.143276                                                 
C 53.553507 55.350183 30.569875                                                 
C 53.505841 55.275824 36.908874                                                 
C 54.891621 57.683964 30.419336                                                 
C 56.197416 55.266534 36.974973                                                 
C 53.482444 55.145303 43.032858                                                 
C 53.434277 55.074567 49.116444                                                 
C 54.823669 57.480425 43.077010                                                 
C 56.129790 55.068837 49.134223                                                 
H 27.311742 41.353703 30.696357                                                 
H 28.276717 39.578075 36.579095                                                 
H 27.282318 41.123299 42.212147                                                 
H 28.208572 39.354725 49.871665                                                 
H 41.811715 30.317476 29.712554                                                 
C 42.849305 32.099663 29.852230                                                 
H 44.483017 30.224161 37.460283                                                 
H 41.744075 30.090268 43.093878                                                 
C 42.792457 31.874442 43.091330                                                 
H 44.360415 29.998817 49.047817                                                 
H 29.643407 37.301871 30.651011                                                 
C 30.665024 39.100444 30.625240                                                 
H 32.311128 37.247656 36.696875                                                 
H 33.688940 34.974491 30.486627                                                 
C 34.725407 36.766112 30.504562                                                 
H 29.611654 37.090052 42.566834                                                 
C 30.639383 38.881468 42.559297                                                 
H 32.241061 37.000383 49.394819                                                 
H 33.655109 34.748142 42.747683                                                 
C 34.694557 36.537274 42.788172                                                 
H 37.739351 32.643747 30.109802                                                 
C 38.771390 34.435051 30.198553                                                 
H 40.413790 32.566068 37.369078                                                 
H 37.709611 32.422348 42.973375                                                 
C 38.743273 34.213211 42.989792                                                 
H 40.327281 32.338776 49.002843                                                 
H 46.488354 30.310257 29.791302                                                 
H 46.419681 30.098355 43.101653                                                 
H 25.941469 48.289805 36.727604                                                 
C 28.012446 48.290639 36.727518                                                 
H 25.862721 48.095412 49.558996                                                 
C 27.929446 48.099479 49.498218                                                 
H 25.933824 43.625159 36.607513                                                 
H 27.317741 46.014163 30.710218                                                 
C 28.003108 43.608851 36.623779                                                 
H 25.875154 43.405680 49.919519                                                 
H 27.262579 45.807080 42.353582                                                 
C 27.936500 43.400025 49.818930                                                 
H 25.933239 57.633121 36.877666                                                 
H 27.311919 60.045034 30.773097                                                 
C 28.002323 57.649567 36.864441                                                 
H 25.851060 57.427930 49.042676                                                 
H 27.247658 59.820137 42.945870                                                 
C 27.919255 57.448610 49.074518                                                 
H 25.941775 52.969055 36.833797                                                 
H 27.317255 55.381971 30.775973                                                 
C 28.012559 52.968085 36.822186                                                 
H 25.861537 52.767060 49.208616                                                 
H 27.253415 55.156797 42.930604                                                 
C 27.929912 52.767725 49.204953                                                 
C 29.378757 41.334677 30.647270                                                 
C 29.294011 41.376949 36.607736                                                 
C 30.669941 43.725061 30.636715                                                 
C 32.008320 41.295721 36.652918                                                 
C 33.380072 39.027073 30.588356                                                 
C 33.349510 39.036412 36.701239                                                 
C 34.725449 41.390356 30.611510                                                 
C 36.027120 38.964419 36.778695                                                 
C 29.386286 46.017045 30.666398                                                 
C 29.297027 45.991570 36.675546                                                 
C 30.667701 48.373035 30.666776                                                 
C 32.014177 45.971390 36.695386                                                 
C 33.389667 43.706991 30.635854                                                 
C 33.352423 43.654158 36.685993                                                 
C 34.727419 46.042101 30.655386                                                 
C 36.043287 43.640162 36.735788                                                 
C 29.340937 41.111360 42.362975                                                 
C 29.232359 41.145335 49.801291                                                 
C 30.626368 43.512085 42.358232                                                 
C 31.947257 41.052150 49.605586                                                 
C 33.345489 38.799638 42.698907                                                 
C 33.281733 38.788505 49.395283                                                 
C 34.680076 41.167669 42.743822                                                 
C 35.952073 38.729886 49.223876                                                 
C 29.326803 45.812734 42.497186                                                 
C 29.216478 45.796834 49.640651                                                 
C 30.603163 48.166310 42.725011                                                 
C 31.945466 45.767338 49.509082                                                 
C 33.343473 43.488281 42.624771                                                 
C 33.289021 43.435316 49.497811                                                 
C 34.671152 45.833874 42.781665                                                 
C 35.977449 43.423413 49.287068                                                 
C 41.447702 39.069856 30.459256                                                 
C 41.417258 38.988225 36.939838                                                 
C 42.803544 41.393166 30.588043                                                 
C 44.102684 38.988232 36.980709                                                 
C 41.395127 38.850875 43.014667                                                 
C 41.335622 38.763669 49.104012                                                 
C 42.743664 41.183321 43.003421                                                 
C 44.016690 38.762633 49.096194                                                 
C 37.417672 41.384634 30.606955                                                 
C 37.384473 41.317044 36.775699                                                 
C 38.766297 43.716326 30.657017                                                 
C 40.072443 41.310148 36.834689                                                 
C 37.368796 41.169548 42.882545                                                 
C 37.308520 41.094466 49.210852                                                 
C 38.709015 43.506547 42.910145                                                 
C 39.991868 41.091389 49.130802                                                 
C 41.411996 34.404636 30.063742                                                 
C 41.442506 34.354684 37.233373                                                 
C 42.803718 36.749830 30.235333                                                 
C 44.086060 34.324428 37.362769                                                 
C 41.374406 34.183996 43.062363                                                 
C 41.364844 34.125756 49.060382                                                 
C 42.747249 36.527460 43.064183                                                 
C 43.990118 34.091701 49.093541                                                 
C 37.397315 36.709827 30.413193                                                 
C 37.394490 36.688919 36.905039                                                 
C 38.761986 39.061626 30.501532                                                 
C 40.045777 36.638216 37.013082                                                 
C 37.359563 36.490043 42.915887                                                 
C 37.318101 36.456205 49.102681                                                 
C 38.711234 38.846155 42.950839                                                 
C 39.971828 36.411005 49.087808                                                 
C 41.457377 48.370690 30.714862                                                 
C 41.421151 48.295780 36.816449                                                 
C 42.801603 50.696448 30.720553                                                 
C 44.107505 48.295889 36.826204                                                 
C 41.392747 48.159887 42.955792                                                 
C 41.341290 48.092515 49.091997                                                 
C 42.734265 50.485315 42.969240                                                 
C 44.026543 48.091592 49.070963                                                 
C 29.385687 55.378549 30.726959                                                 
C 29.296852 55.263493 36.843182                                                 
C 30.670551 57.670180 30.710946                                                 
C 32.014892 55.280100 36.836485                                                 
C 33.386938 53.026053 30.685614                                                 
C 33.353666 52.948911 36.815071                                                 
C 34.727282 55.351903 30.691768                                                 
C 36.047765 52.949601 36.822077                                                 
C 29.319982 55.157812 42.947932                                                 
C 29.214942 55.064729 49.125056                                                 
C 30.602742 57.448996 42.977229                                                 
C 31.933373 55.086347 49.118080                                                 
C 33.317696 52.811638 42.943745                                                 
C 33.273662 52.752546 49.150095                                                 
C 34.656725 55.135647 42.981117                                                 
C 35.968380 52.753480 49.115438                                                 
C 37.423390 50.696322 30.692990                                                 
C 37.390682 50.622129 36.807769                                                 
C 38.766360 53.022312 30.701980                                                 
C 40.078282 50.621915 36.820686                                                 
C 37.355403 50.483413 42.944812                                                 
C 37.311500 50.423602 49.130481                                                 
C 38.696630 52.810169 42.974728                                                 
C 39.999636 50.422686 49.095081                                                 
C 41.456481 43.717158 30.668432                                                 
C 41.420633 43.642538 36.822851                                                 
C 42.802653 46.044173 30.709210                                                 
C 44.105440 43.641749 36.843477                                                 
C 41.396151 43.507663 42.960261                                                 
C 41.336889 43.428585 49.105031                                                 
C 42.738954 45.835335 42.963182                                                 
C 44.022517 43.428211 49.078723                                                 
C 29.382836 50.697242 30.702337                                                 
C 29.298627 50.627026 36.779038                                                 
C 30.667508 53.023216 30.697393                                                 
C 32.013228 50.625203 36.779564                                                 
C 33.387371 48.368227 30.662865                                                 
C 33.353452 48.300223 36.748205                                                 
C 34.726147 50.696656 30.677315                                                 
C 36.048423 48.296130 36.773326                                                 
C 29.315432 50.484233 42.812626                                                 
C 29.214409 50.428799 49.307837                                                 
C 30.600429 52.808592 42.916530                                                 
C 31.933941 50.426124 49.250493                                                 
C 33.325184 48.156748 42.808353                                                 
C 33.280790 48.103728 49.306278                                                 
C 34.660388 50.483647 42.911194                                                 
C 35.971606 48.092984 49.206273                                                 
C 37.422665 46.041386 30.676699                                                 
C 37.389467 45.972141 36.768773                                                 
C 38.766470 48.370789 30.696050                                                 
C 40.077990 45.968656 36.800482                                                 
C 37.363209 45.831102 42.885578                                                 
C 37.313647 45.762190 49.198474                                                 
C 38.702681 48.160411 42.933471                                                 
C 39.999316 45.759303 49.123642                                                 
C 45.452806 32.095721 29.887859                                                 
C 45.520491 32.006460 37.322048                                                 
C 46.892083 34.398857 30.131003                                                 
C 48.102225 32.010538 37.121380                                                 
H 49.138075 30.220075 37.084458                                                 
H 50.545964 32.625597 30.340218                                                 
C 45.496878 36.748579 30.261171                                                 
C 45.468624 36.665064 37.123210                                                 
C 46.851436 39.067259 30.501156                                                 
C 48.147277 36.656452 37.013695                                                 
C 49.520104 34.421293 30.353705                                                 
C 49.528557 34.314081 37.021512                                                 
C 50.905880 36.702344 30.554048                                                 
C 52.162572 34.347728 36.947696                                                 
C 45.371215 31.879246 43.100283                                                 
C 45.410113 31.778955 49.084613                                                 
C 46.796527 34.187766 43.086223                                                 
C 47.987685 31.773211 49.098789                                                 
H 49.027959 29.985765 49.078811                                                 
H 50.453081 32.427110 43.040235                                                 
C 45.422814 36.529399 43.077621                                                 
C 45.367109 36.434399 49.104671                                                 
C 46.781573 38.851451 43.045484                                                 
C 48.040138 36.431869 49.121637                                                 
C 49.422832 34.218731 43.050684                                                 
C 49.412487 34.084605 49.114895                                                 
C 50.825129 36.498862 43.021036                                                 
C 52.044836 34.120359 49.106211                                                 
H 53.198702 32.555353 36.943313                                                 
H 53.082367 32.330334 49.072441                                                 
C 57.605408 39.097005 30.744116                                                 
C 57.545767 38.952032 36.775284                                                 
C 58.946598 41.356086 30.717607                                                 
C 60.255258 39.023002 36.734515                                                 
C 57.530405 38.883289 42.816438                                                 
C 57.441181 38.721686 49.291758                                                 
C 58.870946 41.148851 42.669251                                                 
C 60.141031 38.801700 49.451691                                                 
C 45.491257 46.044041 30.720593                                                 
C 45.449779 45.970074 36.832431                                                 
C 46.835102 48.370568 30.728499                                                 
C 48.136606 45.969449 36.835388                                                 
C 49.528117 43.713988 30.708873                                                 
C 49.481339 43.641009 36.842840                                                 
C 50.870863 46.040071 30.722576                                                 
C 52.167911 43.640511 36.819951                                                 
C 45.426480 45.835823 42.976278                                                 
C 45.366177 45.760281 49.071555                                                 
C 46.767662 48.162789 42.972220                                                 
C 48.051635 45.760714 49.090692                                                 
C 49.464945 43.510386 42.979777                                                 
C 49.392350 43.427384 49.121260                                                 
C 50.804747 45.837330 42.963153                                                 
C 52.077277 43.426311 49.183486                                                 
C 53.568925 41.385087 30.711137                                                 
C 53.514354 41.306634 36.814964                                                 
C 54.910173 43.707690 30.714890                                                 
C 56.202620 41.312828 36.775203                                                 
C 53.498858 41.178549 42.954465                                                 
C 53.415720 41.085361 49.203790                                                 
C 54.837331 43.505034 42.932814                                                 
C 56.101679 41.084816 49.327324                                                 
H 57.242336 34.899225 36.831754                                                 
H 58.642174 37.307390 30.786813                                                 
H 57.143141 34.667822 49.088834                                                 
H 58.572696 37.098789 42.736659                                                 
C 45.494035 41.392184 30.605608                                                 
C 45.452675 41.315714 36.890916                                                 
C 46.840018 43.716283 30.693318                                                 
C 48.138945 41.313718 36.880003                                                 
C 49.534768 39.057846 30.587591                                                 
C 49.491244 38.983839 36.904749                                                 
C 50.879547 41.381260 30.684846                                                 
C 52.175134 38.982387 36.858314                                                 
C 45.431309 41.183284 43.020896                                                 
C 45.366449 41.097025 49.088755                                                 
C 46.776782 43.510146 42.993668                                                 
C 48.050700 41.096150 49.114222                                                 
C 49.464500 38.850555 43.020859                                                 
C 49.393282 38.758346 49.130273                                                 
C 50.812047 41.175715 42.986055                                                 
C 52.076715 38.758064 49.154155                                                 
C 53.559384 36.752031 30.680458                                                 
C 53.537432 36.632659 36.875503                                                 
C 54.926210 39.028087 30.717697                                                 
C 56.203143 36.689041 36.826090                                                 
C 53.480659 36.544482 42.979580                                                 
C 53.433023 36.402706 49.128995                                                 
C 54.856188 38.817087 42.939935                                                 
C 56.099575 36.454806 49.150225                                                 
H 61.277128 37.223946 36.764058                                                 
H 62.678290 39.631787 30.762738                                                 
H 61.178320 37.016406 49.374477                                                 
H 62.579413 39.456660 42.103461                                                 
H 28.277590 61.680261 36.881816                                                 
H 28.184121 61.480186 49.004474                                                 
C 29.379156 60.062214 30.729548                                                 
C 29.292613 59.879510 36.868763                                                 
C 30.667556 62.294796 30.711436                                                 
C 32.008120 59.955987 36.861017                                                 
C 33.390450 57.686708 30.697284                                                 
C 33.353089 57.594422 36.850925                                                 
C 34.728265 60.004223 30.693464                                                 
C 36.043212 57.604416 36.847537                                                 
H 29.647447 64.094251 30.731994                                                 
H 32.315966 64.002668 36.874404                                                 
C 33.383785 62.368105 30.694214                                                 
C 33.350861 62.211686 36.866873                                                 
C 34.731720 64.628646 30.689275                                                 
C 36.030809 62.279205 36.855803                                                 
C 29.313521 59.835530 42.972110                                                 
C 29.206701 59.683236 49.053336                                                 
C 30.597659 62.069485 42.974381                                                 
C 31.922645 59.765701 49.071404                                                 
C 33.318179 57.469236 42.985877                                                 
C 33.269080 57.405059 49.086016                                                 
C 34.653494 59.786635 42.978508                                                 
C 35.961778 57.420351 49.082632                                                 
H 29.574425 63.867470 42.954858                                                 
H 32.219318 63.813581 49.010442                                                 
C 33.309525 62.147585 42.976105                                                 
C 33.262441 62.028193 49.049889                                                 
C 34.655515 64.411142 42.972791                                                 
C 35.941036 62.102236 49.066983                                                 
C 41.455657 57.677902 30.712221                                                 
C 41.419538 57.599805 36.830091                                                 
C 42.800643 60.005060 30.709273                                                 
C 44.104379 57.601617 36.820697                                                 
C 41.380276 57.461673 42.942830                                                 
C 41.339040 57.416389 49.090310                                                 
C 42.721576 59.788325 42.909859                                                 
C 44.025694 57.409530 49.104224                                                 
C 37.418717 60.010650 30.699144                                                 
C 37.386701 59.925778 36.845598                                                 
C 38.763512 62.335533 30.696395                                                 
C 40.072253 59.932426 36.827625                                                 
C 37.342385 59.795167 42.958440                                                 
C 37.300507 59.746696 49.080490                                                 
C 38.682908 62.119925 42.943806                                                 
C 39.989233 59.752185 49.091650                                                 
C 41.456502 53.022950 30.715022                                                 
C 41.420705 52.947864 36.833556                                                 
C 42.800574 55.350568 30.715372                                                 
C 44.106932 52.947895 36.834014                                                 
C 41.386313 52.809383 42.971721                                                 
C 41.340850 52.752926 49.074284                                                 
C 42.728357 55.134954 42.959026                                                 
C 44.027396 52.749302 49.072412                                                 
C 37.422903 55.352558 30.699316                                                 
C 37.388828 55.272308 36.839237                                                 
C 38.765341 57.676437 30.703724                                                 
C 40.077425 55.275114 36.838126                                                 
C 37.351492 55.139001 42.979382                                                 
C 37.309063 55.084029 49.080237                                                 
C 38.692629 57.463555 42.960726                                                 
C 39.997952 55.086204 49.077322                                                 
C 41.424210 67.007407 30.704911                                                 
C 41.451920 66.890873 36.793139                                                 
C 42.843278 69.320918 30.732784                                                 
C 44.077883 66.926762 36.744836                                                 
C 41.333015 66.786765 42.835793                                                 
C 41.354943 66.719697 49.286203                                                 
C 42.754065 69.086358 42.691860                                                 
C 43.980284 66.733026 49.533500                                                 
H 37.755573 68.763957 30.704947                                                 
H 40.419388 68.683379 36.821119                                                 
H 37.673637 68.554509 42.956560                                                 
H 40.334000 68.520161 49.281233                                                 
C 41.449802 62.338019 30.703569                                                 
C 41.418206 62.254645 36.801757                                                 
C 42.799027 64.663719 30.702069                                                 
C 44.101159 62.258858 36.772967                                                 
C 41.366280 62.118137 42.906896                                                 
C 41.335176 62.077878 49.131707                                                 
C 42.708762 64.445503 42.816927                                                 
C 44.018025 62.065569 49.203735                                                 
H 33.696857 66.422199 30.696902                                                 
H 33.625377 66.206470 42.977276                                                 
C 37.405423 64.686120 30.691070                                                 
C 37.401230 64.552621 36.851942                                                 
C 38.788841 66.969642 30.695233                                                 
C 40.055703 64.604437 36.815055                                                 
C 37.322935 64.471400 42.957225                                                 
C 37.310285 64.380323 49.061240                                                 
C 38.700753 66.756694 42.937437                                                 
C 39.965093 64.435115 49.136142                                                 
C 61.662639 41.432335 30.725840                                                 
C 61.538286 41.258894 36.685032                                                 
C 62.954616 43.664052 30.714645                                                 
H 63.605318 41.281083 36.681538                                                 
C 61.660795 46.051409 30.700081                                                 
C 61.532867 45.938308 36.723670                                                 
C 62.945642 48.349189 30.688916                                                 
H 63.600579 45.936097 36.722662                                                 
H 65.023609 43.677858 30.736784                                                 
C 61.571537 41.245939 42.320227                                                 
C 61.435155 41.030180 49.746744                                                 
C 62.865298 43.504371 42.204135                                                 
H 63.499709 41.027700 49.896088                                                 
C 61.594134 45.897889 42.496652                                                 
C 61.447086 45.739094 49.705646                                                 
C 62.889047 48.195025 42.649331                                                 
H 63.508743 45.735447 49.903846                                                 
H 64.905552 43.526440 41.852361                                                 
C 61.653985 55.323492 30.393297                                                 
C 61.548231 55.277912 37.108915                                                 
C 62.936577 57.705023 30.220996                                                 
H 63.614010 55.280784 37.174090                                                 
H 65.014506 53.034152 30.580577                                                 
C 61.580029 55.149975 43.091264                                                 
C 61.470939 55.081815 49.111141                                                 
C 62.864080 57.535998 43.166346                                                 
H 63.540078 55.082711 49.059175                                                 
H 64.947179 52.866451 43.003276                                                 
C 61.659429 50.691455 30.637228                                                 
C 61.544021 50.611831 36.868478                                                 
C 62.944270 53.028365 30.553773                                                 
H 65.016163 48.347800 30.708316                                                 
C 61.597727 50.518406 42.884529                                                 
C 61.472298 50.404431 49.240654                                                 
C 62.876056 52.855698 43.002916                                                 
H 64.957912 48.201190 42.536186                                                 
H 41.795341 71.104074 30.761952                                                 
H 44.445379 71.016811 36.773595                                                 
H 41.718952 70.875379 42.712747                                                 
H 44.382898 70.803455 50.017065                                                 
C 45.422866 69.320825 30.755853                                                 
C 45.499333 69.238241 36.749988                                                 
H 46.471022 71.101954 30.813497                                                 
C 48.078396 69.245594 36.773454                                                 
C 49.480350 66.978448 30.720581                                                 
C 49.497938 66.934710 36.785503                                                 
H 50.508924 68.773297 30.766234                                                 
C 52.129844 66.905016 36.901649                                                 
H 49.122033 71.031944 36.820413                                                 
C 45.331554 69.091582 42.434538                                                 
C 45.418703 69.022401 49.864822                                                 
H 46.366248 70.871042 42.251550                                                 
C 48.020024 69.010251 49.984549                                                 
C 49.408086 66.743781 42.511834                                                 
C 49.461142 66.714687 49.718560                                                 
H 50.438713 68.523047 42.292467                                                 
C 52.100469 66.691289 49.563534                                                 
H 49.055846 70.777083 50.271584                                                 
H 57.205776 66.370797 37.255668                                                 
H 57.185333 66.143590 49.238078                                                 
H 53.156030 68.702027 36.975451                                                 
H 53.131090 68.485357 49.640975                                                 
C 57.578237 62.306405 30.097228                                                 
C 57.521995 62.312281 37.280323                                                 
H 58.617449 64.092782 29.985238                                                 
C 60.240330 62.226366 37.424763                                                 
C 57.500440 62.093810 43.188511                                                 
C 57.486458 62.086829 49.206796                                                 
H 58.532758 63.885987 43.243175                                                 
C 60.199910 62.004969 49.203636                                                 
C 53.538258 64.649621 30.516170                                                 
C 53.513552 64.625160 36.981948                                                 
C 56.173819 64.578817 37.167390                                                 
C 53.455285 64.431938 42.966442                                                 
C 53.474095 64.415591 49.340926                                                 
C 56.143645 64.354308 49.251709                                                 
C 61.649108 59.940348 29.971581                                                 
C 61.540501 59.972799 37.410904                                                 
H 62.677828 61.730008 29.833998                                                 
H 63.603609 59.964590 37.496924                                                 
H 65.004787 57.704851 30.280585                                                 
H 61.265627 64.018642 37.528436                                                 
C 61.561697 59.762877 43.219941                                                 
C 61.480625 59.765419 49.177188                                                 
H 62.570576 61.567300 43.257532                                                 
H 63.548687 59.740573 49.170832                                                 
H 64.934074 57.530556 43.169113                                                 
H 61.228270 63.800366 49.211957                                                 
H 63.540361 50.405769 49.191053                                                 
H 36.277423 34.669247 49.049423                                                 
H 36.274182 66.169759 49.016389                                                 
H 27.246992 50.477739 42.746985                                                 
H 54.488979 66.221854 42.967115                                                 
H 63.610763 50.609317 36.902581                                                 
H 54.515953 34.754014 42.968682                                                 
H 36.357245 34.901564 36.965065                                                 
H 36.367461 66.343411 36.869710                                                 
H 54.568577 66.443698 30.500635                                                 
H 27.314697 50.697146 30.751168                                                 
H 54.593156 34.960937 30.712856                                                 
Li 59.040756 60.055576 33.834725                                                
Li 30.448020 43.298581 46.204397                                                
Li 44.153879 34.150869 33.501692                                                
Li 46.858747 67.037649 46.227594                                                
Li 60.745589 43.452032 45.939254                                                
Li 30.495120 60.990240 33.744600                                                
%ENDBLOCK POSITIONS_ABS                                                         

--------------------------------------------------------------------------------
-------------------------------- END INPUT FILE --------------------------------
--------------------------------------------------------------------------------


 
<<<<<<<<<<<<<<<<<<<<<<<<<<<<<<<<< Full system >>>>>>>>>>>>>>>>>>>>>>>>>>>>>>>>>>
<<<<<<<<<<<<<<<<<<<<<<<<<<< PAW Dataset information >>>>>>>>>>>>>>>>>>>>>>>>>>>
File: ~/pp/paw/c_pbe_abinit.paw; rc = 1.25 bohr; shape type =  3; rshape = 1.25 bohr;
  Atomic number:  6;  ionic charge:  4.000000
    Partial Wave 1: l = 0
    Partial Wave 2: l = 0
    Partial Wave 3: l = 1
    Partial Wave 4: l = 1
  Core charge supplied for Nonlinear Core Corrections
File: ~/pp/paw/h_pbe_abinit.paw; rc = 0.90 bohr; shape type =  3; rshape = 0.90 bohr;
  Atomic number:  1;  ionic charge:  1.000000
    Partial Wave 1: l = 0
    Partial Wave 2: l = 0
File: ~/pp/paw/li_pbe_abinit.paw; rc = 1.42 bohr; shape type =  3; rshape = 1.42 bohr;
  Atomic number:  3;  ionic charge:  3.000000
    Partial Wave 1: l = 0
    Partial Wave 2: l = 0
    Partial Wave 3: l = 0
    Partial Wave 4: l = 1
    Partial Wave 5: l = 1
<<<<<<<<<<<<<<<<<<<<<<<<<<<<<<<<<<<<<<< >>>>>>>>>>>>>>>>>>>>>>>>>>>>>>>>>>>>>>>

-------------------------- Atom counting information ---------------------------
Symbol    Natoms    Nngwfs    Nprojs
  C        484      1936      3872
  H        108       108       216
  Li         6        30        54
.......   ......    ......    ......
Totals:    598      2074      4142
--------------------------------------------------------------------------------

=============================== PSINC grid sizes ===============================
                      Simulation cell:  189 x 189 x 189
                              FFT-box:  117 x 117 x 117
                                  PPD:    7 x   7 x   1
Grid space d1=  0.499927596032a0 (KE cutoff=  30.39413Eh = 827.06648eV)
Grid space d2=  0.499927596032a0 (KE cutoff=  30.39413Eh = 827.06648eV)
Grid space d3=  0.499927596032a0 (KE cutoff=  30.39413Eh = 827.06648eV)
================================================================================
  
WARNING in cell_grid_distribute:
Average of less than one 23-slab per node, so workload cannot be
equally balanced between nodes.

********************* Fourier parallelisation information **********************
       Coarse grid (whole simulation cell) dimensions:    189   189   189
          Real-space ('12') slabs/node (min max mean):      1     2     1
         Recip-space ('23') slabs/node (min max mean):      0     1     0
********************************************************************************

********************* Fourier parallelisation information **********************
       Double grid (whole simulation cell) dimensions:    378   378   378
          Real-space ('12') slabs/node (min max mean):      2     3     2
         Recip-space ('23') slabs/node (min max mean):      1     2     1
********************************************************************************

Atom SCF Calculation for C  : Z (AE atom) =   6 : Z (PS atom) =   4
Config String: 2s2 2p2
Orbitals (num,occ):  2     2.00 2.00
Orbitals   (num,l):  2        0    1
Real-space Grid (nr,dr,rmax): 1377    0.0065406977    9.0000000000
Spherical Bessel Basis (nsws,lmax,cutoff):   37    2  183.0099912382
Confining potential (l,width,scale):  0    3.0000000000  100.0000000000
Confining potential (l,width,scale):  1    3.0000000000  100.0000000000
  1         -5.4350126632   -1.2715272878    4.5135247139   -1.5681949477
  2         -5.3876836850   -1.3562195125    4.4235426751   -1.5380057521
  3         -5.3928844498   -1.3758175853    4.4021699684   -1.5318377811
  4         -5.3988962903   -1.3800385428    4.3975423583   -1.5307324410
  5         -5.4018428823   -1.3823489590    4.3950111904   -1.5301555648
  6         -5.4033571720   -1.3835805046    4.3936635548   -1.5298576834
  7         -5.4041480647   -1.3842324820    4.3929512000   -1.5297032953
  8         -5.4045641108   -1.3845769138    4.3925755232   -1.5296229456
  9         -5.4047838258   -1.3847587737    4.3923775340   -1.5295810042
 10         -5.4049001347   -1.3848548089    4.3922731819   -1.5295590658
 11         -5.4049618018   -1.3849055476    4.3922181562   -1.5295475724
 12         -5.4049945351   -1.3849323732    4.3921891206   -1.5295415432
 13         -5.4050119258   -1.3849465673    4.3921737867   -1.5295383767
 14         -5.4050211723   -1.3849540841    4.3921656816   -1.5295367119
 15         -5.4050260920   -1.3849580684    4.3921613935   -1.5295358358
 16         -5.4050287113   -1.3849601822    4.3921591228   -1.5295353742
 17         -5.4050301068   -1.3849613045    4.3921579192   -1.5295351307
 18         -5.4050308507   -1.3849619010    4.3921572806   -1.5295350022
 19         -5.4050312476   -1.3849622183    4.3921569415   -1.5295349343
 20         -5.4050314594   -1.3849623873    4.3921567612   -1.5295348984
 21         -5.4050315725   -1.3849624773    4.3921566653   -1.5295348794
 22         -5.4050316330   -1.3849625253    4.3921566143   -1.5295348693
Atom SCF converged after  22 iterations to a total energy of     -5.40503163

Atom SCF Calculation for H  : Z (AE atom) =   1 : Z (PS atom) =   1
Config String: 1s1
Orbitals (num,occ):  1     1.00
Orbitals   (num,l):  1        0
Real-space Grid (nr,dr,rmax): 1377    0.0065406977    9.0000000000
Spherical Bessel Basis (nsws,lmax,cutoff):   37    1  183.0099912382
Confining potential (l,width,scale):  0    3.0000000000  100.0000000000
  1         -0.3605254152   -0.2399954029    0.2820952946   -0.2424203210
  2         -0.4156854077   -0.2398249290    0.2871789324   -0.2464796203
  3         -0.4412552402   -0.2379720642    0.2899127187   -0.2499011370
  4         -0.4517265951   -0.2371980236    0.2908966173   -0.2514141636
  5         -0.4557775773   -0.2369735141    0.2911607883   -0.2519713623
  6         -0.4573363459   -0.2369240355    0.2912108681   -0.2521663171
  7         -0.4579443228   -0.2369187864    0.2912112833   -0.2522344454
  8         -0.4581858602   -0.2369215483    0.2912049187   -0.2522587615
  9         -0.4582834939   -0.2369242589    0.2912002081   -0.2522677042
 10         -0.4583235236   -0.2369258837    0.2911975892   -0.2522710965
 11         -0.4583401154   -0.2369267223    0.2911962825   -0.2522724192
 12         -0.4583470483   -0.2369271266    0.2911956643   -0.2522729467
 13         -0.4583499624   -0.2369273145    0.2911953803   -0.2522731607
 14         -0.4583511926   -0.2369274000    0.2911952521   -0.2522732486
 15         -0.4583517136   -0.2369274385    0.2911951948   -0.2522732850
 16         -0.4583519349   -0.2369274556    0.2911951693   -0.2522733002
 17         -0.4583520290   -0.2369274632    0.2911951581   -0.2522733066
Atom SCF converged after  17 iterations to a total energy of     -0.45835203

Atom SCF Calculation for Li : Z (AE atom) =   3 : Z (PS atom) =   3
Config String: 1s2 2s1 2p0
Orbitals (num,occ):  3     2.00 1.00 0.00
Orbitals   (num,l):  3        0    0    1
Real-space Grid (nr,dr,rmax): 1377    0.0065406977    9.0000000000
Spherical Bessel Basis (nsws,lmax,cutoff):   37    2  183.0099912382
Confining potential (l,width,scale):  0    3.0000000000  100.0000000000
Confining potential (l,width,scale):  1    3.0000000000  100.0000000000
  1         -6.0640888065   -4.6655401716    2.5388576516   -0.9989538799
  2         -6.9627542978   -4.0954079129    2.9808988108   -1.1965571426
  3         -7.2692687601   -3.8889996707    3.2029735703   -1.3193883705
  4         -7.3784440298   -3.8322099748    3.2868571989   -1.3711018151
  5         -7.4170278248   -3.8191968371    3.3144974220   -1.3911175539
  6         -7.4303549880   -3.8172386945    3.3228486489   -1.3986896266
  7         -7.4348052089   -3.8175483495    3.3251259310   -1.4015352495
  8         -7.4362242328   -3.8180607346    3.3256233205   -1.4026016384
  9         -7.4366459715   -3.8184145665    3.3256561549   -1.4029998726
 10         -7.4367560626   -3.8186169740    3.3256001574   -1.4031477379
 11         -7.4367765260   -3.8187239825    3.3255481763   -1.4032021548
 12         -7.4367751741   -3.8187782620    3.3255144587   -1.4032219192
 13         -7.4367707398   -3.8188051288    3.3254952336   -1.4032289600
 14         -7.4367680349   -3.8188156035    3.3254870176   -1.4032309087
 15         -7.4367661982   -3.8188217406    3.3254819951   -1.4032318132
 16         -7.4367650112   -3.8188253257    3.3254789583   -1.4032322224
 17         -7.4367642682   -3.8188274151    3.3254771375   -1.4032324006
 18         -7.4367638134   -3.8188286307    3.3254760529   -1.4032324736
 19         -7.4367635392   -3.8188293370    3.3254754103   -1.4032325004
 20         -7.4367633760   -3.8188297469    3.3254750310   -1.4032325080
 21         -7.4367632796   -3.8188299846    3.3254748079   -1.4032325082
Atom SCF converged after  21 iterations to a total energy of     -7.43676328

Determining parallel strategy ...
... using space-filling curve
... NGWF load balancing: max     16;  min     12;  average     13
... Projector load balancing: max     32;  min     24;  average     26
... done
Calculating Ewald energy ...
              Ewald: real-space energy =   35782.140593
        Ewald: reciprocal-space energy =   33916.337394
         Ewald: (sum_charge)**2 Energy =    2670.615407
         Ewald: (sum_charge**2) Energy =     242.868632
                          Ewald Energy =   66784.993947
======================= Empirical dispersion information =======================
Model : Grimme D2
Dispersion Correction Energy: -0.18608278E+01 Hartree
================================================================================
Basis initialisation ...... NGWF spheres initialised
... Projector spheres initialised
... NGWF tight boxes initialised
... Projector tight boxes initialised
... Tight-boxes gathered
... NGWF basis size (local,global):     260995  41857702
... PAW projector initialisation
... done

============================= Charge Augmentation ==============================
                           Aug box size:   13 x  13 x  13
================================================================================

========================== Sparse matrix information ===========================
                        Overlap matrix filling:  39.21%
                        Density kernel filling: 100.00%
              NGWF-Proj overlap matrix filling:  11.19%
                    Aug Overlap matrix filling:  43.45%
                    Hamiltonian matrix filling:  43.45%
                  NGWF diagonal matrix filling:   0.19%
                             KS matrix filling: 100.00% 
                           KSKS matrix filling: 100.00% 
================================================================================

Sparse matrix initialisation ... done
NGWF initialisation ...... done
============ Calculation of NGWF S^-1 using Hotelling algorithm ================ 
         Iteration  |  Frobenius norm and Maximum abs value    (of I-S*S_n^-1)   
               1       0.45134716E+02     0.99509759E+00
               2       0.44752892E+02     0.99024240E+00
               3       0.44055079E+02     0.98066677E+00
               4       0.42875675E+02     0.96201211E+00
               5       0.41113155E+02     0.92642208E+00
               6       0.38830635E+02     0.86073629E+00
               7       0.36129855E+02     0.77491136E+00
               8       0.33104223E+02     0.75499172E+00
               9       0.30066808E+02     0.73997419E+00
              10       0.27162236E+02     0.72516875E+00
              11       0.23896622E+02     0.70564978E+00
              12       0.19614470E+02     0.68261691E+00
              13       0.14035440E+02     0.64372236E+00
              14       0.78786278E+01     0.57834884E+00
              15       0.29867679E+01     0.47150216E+00
              16       0.71723441E+00     0.31587285E+00
              17       0.20997395E+00     0.14259310E+00
              18       0.41838686E-01     0.29151454E-01
              19       0.17497136E-02     0.12193661E-02
              20       0.30614976E-05     0.21335413E-05
              21       0.93737239E-11     0.65325523E-11
              22       0.35382612E-13     0.26645353E-14
================================================================================
Calculating core density ...
================================= Core Density =================================
               Core den box size:   21 x  21 x  21
================================================================================
 ... done
Up spin density kernel initialisation ...... done
Down spin density kernel initialisation ...... done

Writing density kernel to file "6/592nano.dkn" ... done

>>> Optimising kernel for current NGWFs:

--------------------------- Ensemble-DFT optimisation --------------------------
Running ScaLAPACK on  160 processor(s).

--------------------------------------------------------------------------------
  Iter                              Commutator    Free_energy(A=E-TS)     DeltaA
#    0                          0.000756700508   -2859.87657340608257  -2.86E+03

Step                       =       0.381966011250
Energy                     =   -2859.852955232810
Entropy (-TS)              =      -0.023618173105
Free energy (A=E-TS)       =   -2859.876573406083
Est. 0K Energy 0.5*(E+A)   =   -2859.864764319446
Residual Non-orthogonality =       0.000000000000
Residual N_electrons       =      -0.000000000168

Spin          Integrated_Ne            Fermi_level     Delta_Fermi_level
   1      1030.999999999670        -0.253687505225             -2.54E-01
   2      1030.999999999670        -0.253687505226             -2.54E-01

                           Spin 1           |                 Spin 2           |
     Orb |    H-eigenvalues     Occupancies |    H-eigenvalues     Occupancies |
       1 |    -1.9105384633    1.0000000000 |    -1.9105384633    1.0000000000 | 
                          ------                             ------
    1027 |    -0.2907430005    0.9999917162 |    -0.2907430005    0.9999917162 | 
    1028 |    -0.2795605453    0.9997170791 |    -0.2795605453    0.9997170791 | 
    1029 |    -0.2685801076    0.9910108936 |    -0.2685801076    0.9910108936 | 
    1030 |    -0.2559862844    0.6739042730 |    -0.2559862844    0.6739042730 | 
    1031 |    -0.2530833363    0.4524487749 |    -0.2530833363    0.4524487749 | 
                 - Gap at zero temperature - |     - Gap at zero temperature -
    1032 |    -0.2523510869    0.3960364590 |    -0.2523510869    0.3960364590 | 
    1033 |    -0.2490904205    0.1897485887 |    -0.2490904205    0.1897485887 | 
    1034 |    -0.2467512695    0.1006258370 |    -0.2467512695    0.1006258370 | 
    1035 |    -0.2449000006    0.0586971030 |    -0.2449000006    0.0586971030 | 
    1036 |    -0.2436242747    0.0400129357 |    -0.2436242747    0.0400129357 | 
                          ------                             ------
    2074 |     0.5659605294    0.0000000000 |     0.5659605294    0.0000000000 | 

                       |  Abs_value |  Threshold | Converged
     Delta_Free_energy |   2.86E+03 |   1.00E-06 |        No
     Delta_Energy      |   2.86E+03 |   1.00E-04 |        No
     Delta_Entropy     |   2.36E-02 |   1.00E-04 |        No
     Commutator        |   7.57E-04 |   1.00E-05 |        No
     Delta_Fermi_level |   2.54E-01 |   1.00E-03 |        No

  Line search of the free energy minimum:
  Step_type        Step             Free_energy   Predicted_free_energy
.   Initial    0.000000    -2859.87657340608257
.    Trial1    0.381966    -2860.24427269182797
.    Trial2    0.618034    -2859.84864475123413
. Quadratic    0.303725    -2860.26872626703880    -2860.27040799376891

--------------------------------------------------------------------------------
  Iter                              Commutator    Free_energy(A=E-TS)     DeltaA
#    1                          0.000360219999   -2860.26872626703880  -3.92E-01

Step                       =       0.303724581778
Energy                     =   -2860.240784384805
Entropy (-TS)              =      -0.027941882133
Free energy (A=E-TS)       =   -2860.268726267039
Est. 0K Energy 0.5*(E+A)   =   -2860.254755325922
Residual Non-orthogonality =       0.000000000000
Residual N_electrons       =      -0.000000000100

Spin          Integrated_Ne            Fermi_level     Delta_Fermi_level
   1      1031.000000000393        -0.229609588459              2.41E-02
   2      1030.999999999170        -0.229609588499              2.41E-02

                           Spin 1           |                 Spin 2           |
     Orb |    H-eigenvalues     Occupancies |    H-eigenvalues     Occupancies |
       1 |    -1.9317961788    1.0000000000 |    -1.9317961787    1.0000000000 | 
                          ------                             ------
    1027 |    -0.2628610352    0.9999724637 |    -0.2628610354    0.9999724637 | 
    1028 |    -0.2542619092    0.9995840741 |    -0.2542619092    0.9995840741 | 
    1029 |    -0.2436613779    0.9883093267 |    -0.2436613780    0.9883093266 | 
    1030 |    -0.2294994059    0.4913026528 |    -0.2294994059    0.4913026524 | 
    1031 |    -0.2282385124    0.3934217398 |    -0.2282385125    0.3934217396 | 
                 - Gap at zero temperature - |     - Gap at zero temperature -
    1032 |    -0.2277209852    0.3551737548 |    -0.2277209852    0.3551737546 | 
    1033 |    -0.2255667790    0.2181264142 |    -0.2255667791    0.2181264140 | 
    1034 |    -0.2248255479    0.1808379506 |    -0.2248255479    0.1808379505 | 
    1035 |    -0.2238308062    0.1388594819 |    -0.2238308062    0.1388594819 | 
    1036 |    -0.2225137832    0.0961565850 |    -0.2225137832    0.0961565850 | 
                          ------                             ------
    2074 |     0.5900417796    0.0000000000 |     0.5900417797    0.0000000000 | 

                       |  Abs_value |  Threshold | Converged
     Delta_Free_energy |   3.92E-01 |   1.00E-06 |        No
     Delta_Energy      |   3.88E-01 |   1.00E-04 |        No
     Delta_Entropy     |   4.32E-03 |   1.00E-04 |        No
     Commutator        |   3.60E-04 |   1.00E-05 |        No
     Delta_Fermi_level |   2.41E-02 |   1.00E-03 |        No

  Line search of the free energy minimum:
  Step_type        Step             Free_energy   Predicted_free_energy
.   Initial    0.000000    -2860.26872626703880
.    Trial1    0.303725    -2860.11134877023642
.    Trial2    0.116012    -2860.33767853434347
. Quadratic    0.108148    -2860.33795456731150    -2860.33804507384821

--------------------------------------------------------------------------------
  Iter                              Commutator    Free_energy(A=E-TS)     DeltaA
#    2                          0.000255765773   -2860.33795456731150  -6.92E-02

Step                       =       0.108148269215
Energy                     =   -2860.310730424721
Entropy (-TS)              =      -0.027224142515
Free energy (A=E-TS)       =   -2860.337954567311
Est. 0K Energy 0.5*(E+A)   =   -2860.324342496016
Residual Non-orthogonality =       0.000000000000
Residual N_electrons       =      -0.000000000075

Spin          Integrated_Ne            Fermi_level     Delta_Fermi_level
   1      1030.999999999865        -0.226408648902              3.20E-03
   2      1030.999999999803        -0.226408648910              3.20E-03

                           Spin 1           |                 Spin 2           |
     Orb |    H-eigenvalues     Occupancies |    H-eigenvalues     Occupancies |
       1 |    -1.9454030371    1.0000000000 |    -1.9454030372    1.0000000000 | 
[...]
 C    40 -- C   102       -0.10      0.00      5.38699
 C   481 -- C   489       -0.10      0.00      5.38772
 C   416 -- C   476       -0.10      0.00      5.38772
 C   220 -- C   238       -0.10      0.00      5.38798
 C   254 -- C   284       -0.10      0.00      5.38818
 C   438 -- C   480       -0.10     -0.00      5.38824
 C   214 -- C   378       -0.10      0.00      5.38910
 C   224 -- C   242       -0.10     -0.00      5.38917
 C   209 -- C   223       -0.10      0.00      5.38919
 C   319 -- C   361       -0.10      0.00      5.38930
 C   115 -- C   479       -0.10      0.00      5.38930
 C   189 -- C   255       -0.10      0.00      5.38936
 C    34 -- C   100       -0.09      0.00      5.38952
 C    36 -- C    98       -0.09      0.00      5.38984
 C   233 -- C   239       -0.09      0.00      5.38986
 C    83 -- C    85       -0.09     -0.00      5.38987
 C   212 -- C   230       -0.09      0.00      5.39003
 C   333 -- C   365       -0.09      0.00      5.39006
 C   190 -- C   284       -0.09     -0.00      5.39038
 C   197 -- C   295       -0.09      0.00      5.39065
 C    76 -- C   564       -0.09      0.00      5.39115
 C    77 -- C    91       -0.10      0.00      5.39117
 C    85 -- C    95       -0.09      0.00      5.39143
 C   285 -- C   287       -0.09     -0.00      5.39145
 C   423 -- C   489       -0.09      0.00      5.39197
 C   316 -- C   390       -0.10      0.00      5.39198
 C   293 -- C   295       -0.09      0.00      5.39218
 C   385 -- C   395       -0.09      0.00      5.39240
 C   186 -- C   212       -0.09      0.00      5.39260
 C   103 -- C   525       -0.09      0.00      5.39266
 C    38 -- C    56       -0.09     -0.00      5.39279
 C   368 -- C   394       -0.10      0.00      5.39289
 C   330 -- C   394       -0.10      0.00      5.39297
 C   444 -- C   492       -0.09      0.00      5.39299
 C   377 -- C   391       -0.09      0.00      5.39309
 C   185 -- C   235       -0.10     -0.00      5.39310
 C   409 -- C   485       -0.09     -0.00      5.39327
 C    51 -- C   521       -0.10     -0.00      5.39343
 C   201 -- C   239       -0.10      0.00      5.39346
 C   477 -- C   485       -0.10      0.00      5.39366
 C    64 -- C   366       -0.10      0.00      5.39412
 C   430 -- C   480       -0.09      0.00      5.39458
 C    79 -- C    89       -0.09     -0.00      5.39521
 C   242 -- C   328       -0.09      0.00      5.39536
 C   293 -- C   421       -0.09      0.00      5.39561
 C    97 -- C   123       -0.09     -0.00      5.39561
 C    67 -- C    89       -0.09      0.00      5.39570
 C    38 -- C   104       -0.09      0.00      5.39579
 C   408 -- C   416       -0.09      0.00      5.39605
 H   505 -- Li  597       -0.02      0.00      5.39621
 C    96 -- C   567       -0.09     -0.00      5.39634
 C   262 -- C   292       -0.09     -0.00      5.39644
 C    74 -- C   488       -0.09     -0.00      5.39777
 C    99 -- C   521       -0.10     -0.00      5.39791
 C    36 -- C    50       -0.09      0.00      5.39866
 C    90 -- C   124       -0.09      0.00      5.39877
 C   186 -- C   192       -0.09     -0.00      5.39965
 C   285 -- C   407       -0.09      0.00      5.40024
 C    37 -- C   367       -0.09      0.00      5.40044
 C    49 -- C   391       -0.09      0.00      5.40053
 C   210 -- C   296       -0.09     -0.00      5.40164
 C   189 -- C   191       -0.09     -0.00      5.40204
 C    73 -- C    79       -0.09      0.00      5.40268
 C   327 -- C   333       -0.09      0.00      5.40270
 C    69 -- C    95       -0.09     -0.00      5.40279
 C    92 -- C   564       -0.09      0.00      5.40294
 C    86 -- C   482       -0.09      0.00      5.40309
 C   211 -- C   315       -0.09     -0.00      5.40390
 C   422 -- C   430       -0.09      0.00      5.40400
 C    70 -- C   104       -0.09     -0.00      5.40487
 C    55 -- C   525       -0.09      0.00      5.40624
 C   206 -- C   292       -0.09      0.00      5.40633
 C   229 -- C   235       -0.09     -0.00      5.40948
 C    66 -- C   100       -0.09      0.00      5.41142
 C    84 -- C   567       -0.09     -0.00      5.41272
 C   202 -- C   208       -0.09     -0.00      5.41368
 C    53 -- C   395       -0.09      0.00      5.41580
 C   313 -- C   319       -0.09      0.00      5.41712
 C    82 -- C   492       -0.09      0.00      5.41715
 C   408 -- Li  598       -0.07      0.00      5.41746
 C    52 -- C   338       -0.09     -0.00      5.41790
 C   252 -- C   406       -0.09     -0.00      5.41948
 C   466 -- C   538       -0.09     -0.00      5.42021
 C   231 -- C   323       -0.09     -0.00      5.42217
 C   234 -- C   332       -0.09      0.00      5.42242
 C   182 -- C   188       -0.09     -0.00      5.42242
 C   205 -- C   207       -0.09      0.00      5.42248
 C   261 -- C   427       -0.09     -0.00      5.42249
 C   339 -- C   497       -0.09      0.00      5.42340
 C   181 -- C   183       -0.09     -0.00      5.42386
 C   238 -- C   314       -0.08      0.00      5.42403
 C    71 -- C   516       -0.09     -0.00      5.42447
 C    75 -- C   463       -0.09      0.00      5.42500
 C   253 -- C   413       -0.08      0.00      5.42517
 C   260 -- C   420       -0.09     -0.00      5.42528
 C    81 -- C    87       -0.08      0.00      5.42534
 C    72 -- C   560       -0.09     -0.00      5.42870
 C    65 -- C    91       -0.08      0.00      5.43210
 C    40 -- C    54       -0.08      0.00      5.43421
 C    83 -- C   467       -0.08     -0.00      5.44629
 C    56 -- C   342       -0.08      0.00      5.45057
 C   197 -- C   199       -0.08      0.00      5.45131
 C   230 -- C   318       -0.08     -0.00      5.45320
 C    67 -- C   511       -0.08      0.00      5.45744
 C    68 -- C   556       -0.07     -0.00      5.47299
 C   198 -- C   204       -0.07      0.00      5.47452
 C   343 -- C   506       -0.07     -0.00      5.47713
 C   227 -- C   309       -0.07     -0.00      5.48050
 C   470 -- C   547       -0.07     -0.00      5.48401
 H   548 -- Li  596       -0.02     -0.00      5.52339
 H   131 -- Li  594       -0.02     -0.00      5.54000
 H   544 -- Li  596       -0.02      0.00      5.54494
 H   135 -- Li  595       -0.02     -0.00      5.58550
 H   165 -- Li  594       -0.02     -0.00      5.59181
 H   557 -- Li  593       -0.02      0.00      5.59435
 H   151 -- Li  595       -0.02      0.00      5.60861
 C   494 -- C   502       -0.04     -0.00      5.63531
 H   571 -- Li  593       -0.02      0.00      5.66020
=============================================================


============== Orbital energy and occupancy information for spin 1 =============

      Total number of orbitals:    2074
        Occupancy sum (kernel):    1031.000000031
   Occupancy sum (eigenvalues):    1031.000000031
                 HOMO-LUMO gap:       0.003015045 Eh
                 Mid-gap level:      -0.098682046 Eh

                        Orbital | Energy (Eh) | Occupancy
                            1    -1.845193587   1.0000000
                        .......   ...........   .........
                         1022    -0.144717086   0.9999990
                         1023    -0.143698119   0.9999988
                         1024    -0.143587526   0.9999988
                         1025    -0.138113001   0.9999936
                         1026    -0.133847440   0.9999767
                         1027    -0.133551486   0.9999745
                         1028    -0.126723487   0.9997834
                         1029    -0.112943409   0.9835334
                         1030    -0.100887758   0.5695118
                         1031    -0.100189569   0.5140703
                        ....... -- gap at 0K -- .........
                         1032    -0.097174524   0.2915142
                         1033    -0.095916131   0.2154322
                         1034    -0.094228231   0.1390633
                         1035    -0.093398651   0.1101809
                         1036    -0.091457564   0.0629688
                         1037    -0.090090279   0.0417497
                         1038    -0.089483121   0.0347316
                         1039    -0.087778616   0.0204202
                         1040    -0.083610231   0.0056021
                         1041    -0.083553785   0.0055104
                        .......   ...........   .........
                         2074     0.777737960   0.0000000

================================================================================

============== Orbital energy and occupancy information for spin 2 =============

      Total number of orbitals:    2074
        Occupancy sum (kernel):    1030.999999969
   Occupancy sum (eigenvalues):    1030.999999969
                 HOMO-LUMO gap:       0.003015045 Eh
                 Mid-gap level:      -0.098682047 Eh

                        Orbital | Energy (Eh) | Occupancy
                            1    -1.845193587   1.0000000
                        .......   ...........   .........
                         1022    -0.144717087   0.9999990
                         1023    -0.143698119   0.9999988
                         1024    -0.143587527   0.9999988
                         1025    -0.138113001   0.9999936
                         1026    -0.133847440   0.9999767
                         1027    -0.133551486   0.9999745
                         1028    -0.126723487   0.9997834
                         1029    -0.112943409   0.9835334
                         1030    -0.100887758   0.5695118
                         1031    -0.100189569   0.5140702
                        ....... -- gap at 0K -- .........
                         1032    -0.097174524   0.2915142
                         1033    -0.095916132   0.2154322
                         1034    -0.094228231   0.1390633
                         1035    -0.093398651   0.1101809
                         1036    -0.091457564   0.0629688
                         1037    -0.090090279   0.0417497
                         1038    -0.089483121   0.0347316
                         1039    -0.087778616   0.0204202
                         1040    -0.083610231   0.0056021
                         1041    -0.083553785   0.0055104
                        .......   ...........   .........
                         2074     0.777737960   0.0000000

================================================================================

===================== Writing canonical molecular orbitals =====================
    Spin 1
| Orbital  Energy (eV)  Norm     |
| HOMO     -2.72629688  1.000000 | Writing "6/592nano_HOMO_UP.cube" ... done
Writing "6/592nano_HOMO_UP.dx" ... done
| LUMO     -2.64425334  1.000000 | Writing "6/592nano_LUMO_UP.cube" ... done
Writing "6/592nano_LUMO_UP.dx" ... done
================================================================================

===================== Writing canonical molecular orbitals =====================
    Spin 2
| Orbital  Energy (eV)  Norm     |
| HOMO     -2.72629690  1.000000 | Writing "6/592nano_HOMO_DN.cube" ... done
Writing "6/592nano_HOMO_DN.dx" ... done
| LUMO     -2.64425335  1.000000 | Writing "6/592nano_LUMO_DN.cube" ... done
Writing "6/592nano_LUMO_DN.dx" ... done
================================================================================

================== Local Density of States (LDOS) calculation ==================
Writing "6/592nano_UP_LDOS.txt" ...  done
================================================================================

================== Local Density of States (LDOS) calculation ==================
Writing "6/592nano_DN_LDOS.txt" ...  done
================================================================================
 
=============== Density of States (DOS) calculation for UP spin ================
Writing "6/592nano_UP_DOS.txt" ...  done
================================================================================
 
============== Density of States (DOS) calculation for DOWN spin ===============
Writing "6/592nano_DN_DOS.txt" ...  done
================================================================================
 
Writing bands to file "6/592nano.val_bands" ... done
 
================ Projected Density of States (pDOS) calculation ================
 
Constructing AM resolved functions  ...... done
Writing NGWF plot files in formats: CUBE DX ...  done
 
Performing overlap integrals ...  done
 
Computing pDOS weights ...  done
 
All bands spilling parameter =   3.45 %
Occupancy-weighted spilling parameter =   0.98 %
 
 => Outputting data for OptaDOS <=
 
Writing pDOS weights to file "6/592nano.val_pdos_bin" ... done
 
Writing band gradients to file "6/592nano.val_dome_bin" ... done
 
Writing Castep output cell file to "6/592nano-out.cell" ... done
 
 => Computing Gaussian smeared pDOS for UP spin<= 
Writing "6/592nano_UP_PDOS.txt" ...  done
 
 => Computing Gaussian smeared pDOS for DOWN spin<= 
Writing "6/592nano_DN_PDOS.txt" ...  done
 
 => Computing Occupancy-weighted Gaussian smeared pDOS for UP spin<= 
Writing "6/592nano_occ_UP_PDOS.txt" ...  done
  => Band centres for UP spin channel: 
 S band centre of group 1:  -14.579923 eV
 P band centre of group 1:   -7.728558 eV
  Band centres for UP spin channel done. <= 
  => Integrated number of electrons in each AM band for UP spin channel: 
 S num electrons of group 1:  271.034189
 P num electrons of group 1:  749.901701
  Integrated number of electrons for UP spin channel done. <= 
 
 => Computing Occupancy-weighted Gaussian smeared pDOS for DOWN spin<= 
Writing "6/592nano_occ_DN_PDOS.txt" ...  done
  => Band centres for DOWN spin channel: 
 S band centre of group 1:  -14.579923 eV
 P band centre of group 1:   -7.728558 eV
  Band centres for DOWN spin channel done. <=
  => Integrated number of electrons in each AM band for DOWN spin channel: 
 S num electrons of group 1:  271.034189
 P num electrons of group 1:  749.901701
  Integrated number of electrons for DOWN spin channel done. <=
================================================================================

------------------------------ TIMING INFORMATION ------------------------------
AVERAGE TIME:   12497.375s on    160 node(s)                                    
TOTAL TIME:     12497.375s on    160 node(s)                                    
================= AVERAGE TIMINGS FROM ALL NODES (CUMULATIVE) ==================
|| TAG                                    #calls    cpu time   %total  Gflops ||
|| work_imbalance                       :     1        0.00s   0.000%  ------ ||
|| paw_tcore_density                    :     1        0.01s   0.000%  ------ ||
|| sparse_set_to_garbage                :   219        0.01s   0.000%  ------ ||
|| paw_sphere_density_on_grid           :     1        0.01s   0.000%  ------ ||
|| basis_extract_function_from_box      :   337        0.02s   0.000%  ------ ||
|| paw_dij_hartree                      :   786        0.03s   0.000%  ------ ||
|| ngwfs_initialise_from_radial         :     2        0.04s   0.000%  ------ ||
|| ewald_calculate_energy               :     1        0.11s   0.001%  ------ ||
|| density_init_guess_real              :     1        0.21s   0.002%  ------ ||
|| paw_dataset_init                     :     3        0.33s   0.003%  ------ ||
|| paw_tcore_hartree_on_grid            :     1        0.38s   0.003%  ------ ||
|| pseudo_make_structure_factor         :     1        0.48s   0.004%  ------ ||
|| sparse_init                          :     1        0.88s   0.007%  ------ ||
|| dense_normal_eigensolve              :     1        0.90s   0.007%  ------ ||
|| restart_kernel_write                 :    14        1.29s   0.010%  ------ ||
|| paw_species_calc_proj_prec_mat       :     1        2.18s   0.017%  ------ ||
|| sparse_embed_hotelling_invert_embed  :    25        4.20s   0.034%  ------ ||
|| augmentation_screen_dij              :   591        6.35s   0.051%  ------ ||
|| sw_init                              :     1        7.54s   0.060%  ------ ||
|| fourier_apply_box_pair               :   844        9.33s   0.075%  2.392k ||
|| ngwf_gradient_coeffs                 :    13       11.27s   0.090%  ------ ||
|| projectors_init_fftbox_recip         :    53       20.09s   0.161%  ------ ||
|| basis_copy_function_to_box           : 20765       26.80s   0.214%  ------ ||
|| hartree_on_grid                      :   586       29.80s   0.238%  ------ ||
|| integrals_kinetic                    :    25       29.97s   0.240%  ------ ||
|| projectors_func_ovlp_box             :    26       36.24s   0.290%  ------ ||
|| function_ops_brappd_ketppd           :    52       37.95s   0.304%  ------ ||
|| paw_dij_xc                           :   786       46.45s   0.372%  ------ ||
|| sparse_trace                         : 14648       63.42s   0.507%  ------ ||
|| hamiltonian_energy_components        :     3       67.69s   0.542%  ------ ||
|| eigenstates_pdos                     :     1       71.53s   0.572%  ------ ||
|| augmentation_density_on_grid         :   586       79.88s   0.639%  ------ ||
|| fourier_apply_cell_forward           :  5266      101.52s   0.812% 180.539 ||
|| aug_nonlocal_mat                     :   773      104.32s   0.835%  ------ ||
|| fourier_apply_cell_backward          :  5267      108.11s   0.865% 169.578 ||
|| restart_ngwfs_tightbox_output        :    12      111.74s   0.894%  ------ ||
|| basis_dot_function_with_box          : 4.389M     119.54s   0.957%  ------ ||
|| eigenstates_calculate                :     1      156.11s   1.249%  ------ ||
|| xc_energy_potential                  :   585      213.28s   1.707%  ------ ||
|| sparse_product                       : 12720      292.80s   2.343%  ------ ||
|| dense_eigensolve                     :  1114      339.09s   2.713%  ------ ||
|| integrals_locpot_mat_els_batch       :   389      420.94s   3.368%  ------ ||
|| basis_add_function_to_box            : 13.45M     436.78s   3.495%  ------ ||
|| cell_grid_extract_box_real           : 11388      509.19s   4.074%  ------ ||
|| cell_grid_deposit_box_real           : 37588      513.30s   4.107%  ------ ||
|| projectors_gradient_batch            :    13      533.21s   4.267%  ------ ||
|| projectors_grad_precond_batch        :    13      737.52s   5.901%  ------ ||
|| density_fftbox_deposit_to_cell       : 18752      923.55s   7.390%  ------ ||
|| density_batch_row_sums               :   586     1048.96s   8.393%  ------ ||
|| properties_calculate                 :     1     1164.95s   9.322%  ------ ||
|| edft_diag_ngwf_ham                   :  1112     1249.00s   9.994%  ------ ||
|| potential_apply_to_ngwf_batch        :   389     1335.09s  10.683%  ------ ||
|| ngwf_gradient_build_batch            :    13     1412.62s  11.303%  ------ ||
|| fourier_apply_box                    : 66861     1412.91s  11.306%  4.073k ||
|| ngwf_gradient_batch                  :    13     1532.76s  12.265%  ------ ||
|| ngwf_gradient_lnv                    :    13     1552.42s  12.422%  ------ ||
|| density_fftbox_interpolate_multiply  : 18752     1614.58s  12.919%  ------ ||
|| integrals_locpot_dbl_grid            :   389     1770.07s  14.164%  ------ ||
|| edft_apply_smearing_operator         :   556     2041.91s  16.339%  ------ ||
|| density_batch_interp_deposit         :   586     3143.55s  25.154%  ------ ||
|| density_on_dbl_grid                  :   586     4288.99s  34.319%  ------ ||
|| hamiltonian_lhxc_calculate           :   581     4828.76s  38.638%  ------ ||
|| edft_calculate                       :    13     8798.57s  70.403%  ------ ||
|| ngwf_cg_optimise                     :     1    11313.83s  90.530%  ------ ||
|| total_time                           :     1    12497.37s 100.000%  ------ ||
================================================================================
Overhead of generating timer report: 
- 0 ms averaging over threads,
- 24 ms ensuring consistency across MPI ranks,
- 0 ms printing in order.

Job completed: 13-08-2020 09:38 (+0100)

