 +---------------------------------------------------------------+
 |                                                               |
 |        ####### #     # ####### ####### ####### ######         |
 |        #     # ##    # #          #    #       #     #        |
 |        #     # # #   # #          #    #       #     #        |
 |        #     # #  #  # #####      #    #####   ######         |
 |        #     # #   # # #          #    #       #              |
 |        #     # #    ## #          #    #       #              |
 |        ####### #     # #######    #    ####### #              |
 |                                                               |
 |        Linear-Scaling Ab Initio Total Energy Program          |
 |                                                               |
 |          Release for academic collaborators of ODG            |
 |                                             Version 5.3.2.12  |
 |                                                               |
 +---------------------------------------------------------------+
 |                                                               |
 |  Authors:                                                     |
 |  Jacek Dziedzic, Peter D. Haynes, Nicholas D. M. Hine,        |
 |  Arash. A. Mostofi, Mike C. Payne and Chris-Kriton Skylaris   |
 |                                                               |
 |  Contributors:                                                |
 |  J. Aarons, L. Andrinopoulos, P. W. Avraam, R. A. Bell,       |
 |  A. Bhandari, G. A. Bramley, R. J. Charlton, S. J. Clark,     |
 |  R. J. Clements, G. C. Constantinescu, F. Corsetti,           |
 |  N. Corsini, O. Dieguez, S. M. M. Dubois, K. K. B. Duff,      |
 |  J. M. Escartin, A. Greco, H. Helal, Q. O. Hill, L. P. Lee,   |
 |  J.-H. Li, E. B. Linscott, G. Moynihan, D. D. O`Regan,        |
 |  O. K. Okan, M. J. S. Phipps, C. J. Pickard,                  |
 |  J. C. A. Prentice, M. I. J. Probert, L. E. Ratcliff,         |
 |  M. Robinson, A. Ruiz Serrano, J. S. Spencer, E. W. Tait,     |
 |  G. Teobaldi, D. Turban, V. Vitale, K. A. Wilkinson,          |
 |  C. Weber, J. C. Womack, N. Yeung and T. J. Zuehlsdorff       |
 |                                                               |
 |                                   Copyright (c) 2004-2020     |
 |                                                               |
 |  Please cite:                                                 |
 |  "Introducing ONETEP: Linear-scaling density functional       |
 |   simulations on parallel computers".                         |
 |   C.-K. Skylaris, P. D. Haynes, A. A. Mostofi, M. C. Payne.   |
 |   J. Chem. Phys. 122 084119 (2005).                           |
 |                                                               |
 |          in all publications arising from your use of ONETEP. |
 |                                                               |
 +---------------------------------------------------------------+
 |                                                               |
 |   ONETEP is based on developments described in the following  |
 |   publications:                                               |
 |                                                               |
 |  "Nonorthogonal generalized Wannier function pseudopotential  |
 |   plane-wave method".                                         |
 |   C.-K. Skylaris, A. A. Mostofi, P. D. Haynes, O. Dieguez,    |
 |   M. C. Payne.                                                |
 |   Phys. Rev. B 66 035119 (2002).                              |
 |                                                               |
 |  "Preconditioned iterative minimization for linear-scaling    |
 |   electronic structure calculations".                         |
 |   A. A. Mostofi, P. D. Haynes, C.-K. Skylaris, M. C. Payne.   |
 |   J. Chem. Phys. 119(17), pp.8842-8848 (2003).                |
 |                                                               |
 |  "Total-energy calculations on a real space grid with         |
 |   localized functions and a plane-wave basis".                |
 |   A. A. Mostofi, C.-K. Skylaris, P. D. Haynes, M. C. Payne.   |
 |   Comput. Phys. Commun. 147, pp.788-802 (2002).               |
 |                                                               |
 |  "Accurate kinetic energy evaluation in electronic structure  |
 |   calculations with localized functions on real space grids"  |
 |   C.-K. Skylaris, A. A. Mostofi, P. D. Haynes, C. J. Pickard, |
 |   M. C. Payne.                                                |
 |   Comput. Phys. Commun. 140, pp.315-322 (2001).               |
 |                                                               |
 |  "Accurate ionic forces and geometry optimization in linear-  |
 |   scaling density-functional theory with local orbitals"      |
 |   N. D. M. Hine, M. Robinson, P. D. Haynes, C.-K. Skylaris,   |
 |   M. C. Payne, and A. A. Mostofi.                             |
 |   Phys. Rev. B 83 195102 (2011).                              |
 |                                                               |
 +---------------------------------------------------------------+

Job started: 25-02-2020 10:20 (-0000)
 
Reading parameters from file "3.085688_GO_manual_4x64graphite.dat" ...

WARNING: "cutoff_energy" not specified, but "psinc_spacing" specified.
         Using the latter to set the KE cutoff energy to  732.32021eV,
         thus *overriding* the default.

... done

If your calculation crashes here, before "Checking processes and threads..."
is displayed, then your stack size is insufficient.
If so, use "ulimit -s unlimited" at runtime.
You can disable this check with "check_stack_size F".

Checking processes and threads...
   Determining the default number of threads...
      No default threads set at compilation time: defaulting to 1.
      OpenMP library call suggests 4 threads.
      Hybrid MPI-OpenMP compilation detected.
      Number of MPI processes > 1.
      OMP_NUM_THREADS environment variable present and
      its value matches the one obtained from the OpenMP library call.
      Using this value as default.
      Default threads: 4
      Default applies to threads_max and threads_num_fftboxes.
      Settings in the input file override this default.
   ... done

   Running with 40 MPI processes.
   There are 10 MPI processes running on the same node as the root process.
   Each MPI process is using: 
               1 threads for simulation cell FFTs.
               1 threads for parallel FFT box operations.
               4 threads for loops over batched FFT box operations.
               4 threads in other parallel regions.
... done

Basic input checks...
Resetting ngwf_cg_rotate to TRUE for EDFT calculations
... done

Reading geometry and species blocks from file "3.085688_GO_manual_4x64graphite.dat" ...
    
  PSINC grid spacing along a1 set to   0.511215680000a0 from input file.
  PSINC grid spacing along a2 set to   0.531284090000a0 from input file.
  PSINC grid spacing along a3 set to   0.507053670000a0 from input file.
  PSINC grid spacing along a1 set to   0.511215680000a0 from input file.
  PSINC grid spacing along a2 set to   0.531284090000a0 from input file.
  PSINC grid spacing along a3 set to   0.507053670000a0 from input file.
  Number of PPD points along a3 set to 1.  This is 
  the default value, it may have been provided also in the input file.
... done
 Writing xyz coordinates to file "3.085688_GO_manual_4x64graphite.xyz" ... done


--------------------------------------------------------------------------------
---------------------------------- INPUT FILE ----------------------------------
--------------------------------------------------------------------------------

task : singlepoint                                                              
do_properties : true                                                            
dx_format T                                                                     
edft T                                                                          
output_detail VERBOSE                                                           
write_xyz T                                                                     
xc_functional OPTB88                                                            
PSINC_SPACING 0.51121568 0.53128409 0.50705367                                  
paw T                                                                           
pdos_max_l = 2                                                                  
dos_smear  0.1 eV                                                               
popn_calculate T                                                                
PDOS_PSEUDOATOMIC T                                                             
PDOS_REDUCE_SWS F                                                               
PDOS_CONSTRUCT_BASIS F                                                          
PDOS_LOWDIN T                                                                   
PDOS_ORTH_ATOM_BLOCKS F                                                         
PDOS_LCAO_OPTIMIZE F                                                            
pdos_optados_output T                                                           
homo_plot 0                                                                     
lumo_plot 0                                                                     
homo_dens_plot -1                                                               
lumo_dens_plot -1                                                               
%BLOCK SPECIES                                                                  
C C 6 4 9.0                                                                     
%ENDBLOCK SPECIES                                                               
%BLOCK SPECIES_POT                                                              
C "~/pp/paw/c_pbe_abinit.paw"                                                   
%ENDBLOCK SPECIES_POT                                                           
%BLOCK SPECIES_ATOMIC_SET                                                       
C "SOLVE conf=2s2 2p2"                                                          
%ENDBLOCK SPECIES_ATOMIC_SET                                                    
%BLOCK LATTICE_CART                                                             
32.21  0.00  0.00                                                               
0.00 18.59  0.00                                                                
0.00  0.00 58.31                                                                
%ENDBLOCK LATTICE_CART                                                          
%BLOCK POSITIONS_ABS                                                            
C  0.00  0.00  2.92                                                             
C  0.00  0.00 14.58                                                             
C  0.00  0.00 26.24                                                             
C  0.00  0.00 37.90                                                             
C  0.00  0.00 49.56                                                             
C  0.00  4.65  2.92                                                             
C  0.00  4.65 14.58                                                             
C  0.00  4.65 26.24                                                             
C  0.00  4.65 37.90                                                             
C  0.00  4.65 49.56                                                             
C  4.03  2.32  2.92                                                             
C  4.03  2.32 14.58                                                             
C  4.03  2.32 26.24                                                             
C  4.03  2.32 37.90                                                             
C  4.03  2.32 49.56                                                             
C  8.05  0.00  2.92                                                             
C  8.05  0.00 14.58                                                             
C  8.05  0.00 26.24                                                             
C  8.05  0.00 37.90                                                             
C  8.05  0.00 49.56                                                             
C  0.00  9.30  2.92                                                             
C  0.00  9.30 14.58                                                             
C  0.00  9.30 26.24                                                             
C  0.00  9.30 37.90                                                             
C  0.00  9.30 49.56                                                             
C  4.03  6.97  2.92                                                             
C  4.03  6.97 14.58                                                             
C  4.03  6.97 26.24                                                             
C  4.03  6.97 37.90                                                             
C  4.03  6.97 49.56                                                             
C  8.05  4.65  2.92                                                             
C  8.05  4.65 14.58                                                             
C  8.05  4.65 26.24                                                             
C  8.05  4.65 37.90                                                             
C  8.05  4.65 49.56                                                             
C 12.08  2.32  2.92                                                             
C 12.08  2.32 14.58                                                             
C 12.08  2.32 26.24                                                             
C 12.08  2.32 37.90                                                             
C 12.08  2.32 49.56                                                             
C 16.10  0.00  2.92                                                             
C 16.10  0.00 14.58                                                             
C 16.10  0.00 26.24                                                             
C 16.10  0.00 37.90                                                             
C 16.10  0.00 49.56                                                             
C  0.00 13.95  2.92                                                             
C  0.00 13.95 14.58                                                             
C  0.00 13.95 26.24                                                             
C  0.00 13.95 37.90                                                             
C  0.00 13.95 49.56                                                             
C  4.03 11.62  2.92                                                             
C  4.03 11.62 14.58                                                             
C  4.03 11.62 26.24                                                             
C  4.03 11.62 37.90                                                             
C  4.03 11.62 49.56                                                             
C  8.05  9.30  2.92                                                             
C  8.05  9.30 14.58                                                             
C  8.05  9.30 26.24                                                             
C  8.05  9.30 37.90                                                             
C  8.05  9.30 49.56                                                             
C 12.08  6.97  2.92                                                             
C 12.08  6.97 14.58                                                             
C 12.08  6.97 26.24                                                             
C 12.08  6.97 37.90                                                             
C 12.08  6.97 49.56                                                             
C 16.10  4.65  2.92                                                             
C 16.10  4.65 14.58                                                             
C 16.10  4.65 26.24                                                             
C 16.10  4.65 37.90                                                             
C 16.10  4.65 49.56                                                             
C 20.13  2.32  2.92                                                             
C 20.13  2.32 14.58                                                             
C 20.13  2.32 26.24                                                             
C 20.13  2.32 37.90                                                             
C 20.13  2.32 49.56                                                             
C 24.16  0.00  2.92                                                             
C 24.16  0.00 14.58                                                             
C 24.16  0.00 26.24                                                             
C 24.16  0.00 37.90                                                             
C 24.16  0.00 49.56                                                             
C  4.03 16.27  2.92                                                             
C  4.03 16.27 14.58                                                             
C  4.03 16.27 26.24                                                             
C  4.03 16.27 37.90                                                             
C  4.03 16.27 49.56                                                             
C  8.05 13.95  2.92                                                             
C  8.05 13.95 14.58                                                             
C  8.05 13.95 26.24                                                             
C  8.05 13.95 37.90                                                             
C  8.05 13.95 49.56                                                             
C 12.08 11.62  2.92                                                             
C 12.08 11.62 14.58                                                             
C 12.08 11.62 26.24                                                             
C 12.08 11.62 37.90                                                             
C 12.08 11.62 49.56                                                             
C 16.10  9.30  2.92                                                             
C 16.10  9.30 14.58                                                             
C 16.10  9.30 26.24                                                             
C 16.10  9.30 37.90                                                             
C 16.10  9.30 49.56                                                             
C 20.13  6.97  2.92                                                             
C 20.13  6.97 14.58                                                             
C 20.13  6.97 26.24                                                             
C 20.13  6.97 37.90                                                             
C 20.13  6.97 49.56                                                             
C 24.16  4.65  2.92                                                             
C 24.16  4.65 14.58                                                             
C 24.16  4.65 26.24                                                             
C 24.16  4.65 37.90                                                             
C 24.16  4.65 49.56                                                             
C 28.18  2.32  2.92                                                             
C 28.18  2.32 14.58                                                             
C 28.18  2.32 26.24                                                             
C 28.18  2.32 37.90                                                             
C 28.18  2.32 49.56                                                             
C 12.08 16.27  2.92                                                             
C 12.08 16.27 14.58                                                             
C 12.08 16.27 26.24                                                             
C 12.08 16.27 37.90                                                             
C 12.08 16.27 49.56                                                             
C 16.10 13.95  2.92                                                             
C 16.10 13.95 14.58                                                             
C 16.10 13.95 26.24                                                             
C 16.10 13.95 37.90                                                             
C 16.10 13.95 49.56                                                             
C 20.13 11.62  2.92                                                             
C 20.13 11.62 14.58                                                             
C 20.13 11.62 26.24                                                             
C 20.13 11.62 37.90                                                             
C 20.13 11.62 49.56                                                             
C 24.16  9.30  2.92                                                             
C 24.16  9.30 14.58                                                             
C 24.16  9.30 26.24                                                             
C 24.16  9.30 37.90                                                             
C 24.16  9.30 49.56                                                             
C 28.18  6.97  2.92                                                             
C 28.18  6.97 14.58                                                             
C 28.18  6.97 26.24                                                             
C 28.18  6.97 37.90                                                             
C 28.18  6.97 49.56                                                             
C 20.13 16.27  2.92                                                             
C 20.13 16.27 14.58                                                             
C 20.13 16.27 26.24                                                             
C 20.13 16.27 37.90                                                             
C 20.13 16.27 49.56                                                             
C 24.16 13.95  2.92                                                             
C 24.16 13.95 14.58                                                             
C 24.16 13.95 26.24                                                             
C 24.16 13.95 37.90                                                             
C 24.16 13.95 49.56                                                             
C 28.18 11.62  2.92                                                             
C 28.18 11.62 14.58                                                             
C 28.18 11.62 26.24                                                             
C 28.18 11.62 37.90                                                             
C 28.18 11.62 49.56                                                             
C 28.18 16.27  2.92                                                             
C 28.18 16.27 14.58                                                             
C 28.18 16.27 26.24                                                             
C 28.18 16.27 37.90                                                             
C 28.18 16.27 49.56                                                             
C  0.00  0.00  8.75                                                             
C  0.00  0.00 20.41                                                             
C  0.00  0.00 32.07                                                             
C  0.00  0.00 43.73                                                             
C  0.00  0.00 55.40                                                             
C  0.00  4.65  8.75                                                             
C  0.00  4.65 20.41                                                             
C  0.00  4.65 32.07                                                             
C  0.00  4.65 43.73                                                             
C  0.00  4.65 55.40                                                             
C  4.03  2.32  8.75                                                             
C  4.03  2.32 20.41                                                             
C  4.03  2.32 32.07                                                             
C  4.03  2.32 43.73                                                             
C  4.03  2.32 55.40                                                             
C  8.05  0.00  8.75                                                             
C  8.05  0.00 20.41                                                             
C  8.05  0.00 32.07                                                             
C  8.05  0.00 43.73                                                             
C  8.05  0.00 55.40                                                             
C  0.00  9.30  8.75                                                             
C  0.00  9.30 20.41                                                             
C  0.00  9.30 32.07                                                             
C  0.00  9.30 43.73                                                             
C  0.00  9.30 55.40                                                             
C  4.03  6.97  8.75                                                             
C  4.03  6.97 20.41                                                             
C  4.03  6.97 32.07                                                             
C  4.03  6.97 43.73                                                             
C  4.03  6.97 55.40                                                             
C  8.05  4.65  8.75                                                             
C  8.05  4.65 20.41                                                             
C  8.05  4.65 32.07                                                             
C  8.05  4.65 43.73                                                             
C  8.05  4.65 55.40                                                             
C 12.08  2.32  8.75                                                             
C 12.08  2.32 20.41                                                             
C 12.08  2.32 32.07                                                             
C 12.08  2.32 43.73                                                             
C 12.08  2.32 55.40                                                             
C 16.10  0.00  8.75                                                             
C 16.10  0.00 20.41                                                             
C 16.10  0.00 32.07                                                             
C 16.10  0.00 43.73                                                             
C 16.10  0.00 55.40                                                             
C  0.00 13.95  8.75                                                             
C  0.00 13.95 20.41                                                             
C  0.00 13.95 32.07                                                             
C  0.00 13.95 43.73                                                             
C  0.00 13.95 55.40                                                             
C  4.03 11.62  8.75                                                             
C  4.03 11.62 20.41                                                             
C  4.03 11.62 32.07                                                             
C  4.03 11.62 43.73                                                             
C  4.03 11.62 55.40                                                             
C  8.05  9.30  8.75                                                             
C  8.05  9.30 20.41                                                             
C  8.05  9.30 32.07                                                             
C  8.05  9.30 43.73                                                             
C  8.05  9.30 55.40                                                             
C 12.08  6.97  8.75                                                             
C 12.08  6.97 20.41                                                             
C 12.08  6.97 32.07                                                             
C 12.08  6.97 43.73                                                             
C 12.08  6.97 55.40                                                             
C 16.10  4.65  8.75                                                             
C 16.10  4.65 20.41                                                             
C 16.10  4.65 32.07                                                             
C 16.10  4.65 43.73                                                             
C 16.10  4.65 55.40                                                             
C 20.13  2.32  8.75                                                             
C 20.13  2.32 20.41                                                             
C 20.13  2.32 32.07                                                             
C 20.13  2.32 43.73                                                             
C 20.13  2.32 55.40                                                             
C 24.16  0.00  8.75                                                             
C 24.16  0.00 20.41                                                             
C 24.16  0.00 32.07                                                             
C 24.16  0.00 43.73                                                             
C 24.16  0.00 55.40                                                             
C  4.03 16.27  8.75                                                             
C  4.03 16.27 20.41                                                             
C  4.03 16.27 32.07                                                             
C  4.03 16.27 43.73                                                             
C  4.03 16.27 55.40                                                             
C  8.05 13.95  8.75                                                             
C  8.05 13.95 20.41                                                             
C  8.05 13.95 32.07                                                             
C  8.05 13.95 43.73                                                             
C  8.05 13.95 55.40                                                             
C 12.08 11.62  8.75                                                             
C 12.08 11.62 20.41                                                             
C 12.08 11.62 32.07                                                             
C 12.08 11.62 43.73                                                             
C 12.08 11.62 55.40                                                             
C 16.10  9.30  8.75                                                             
C 16.10  9.30 20.41                                                             
C 16.10  9.30 32.07                                                             
C 16.10  9.30 43.73                                                             
C 16.10  9.30 55.40                                                             
C 20.13  6.97  8.75                                                             
C 20.13  6.97 20.41                                                             
C 20.13  6.97 32.07                                                             
C 20.13  6.97 43.73                                                             
C 20.13  6.97 55.40                                                             
C 24.16  4.65  8.75                                                             
C 24.16  4.65 20.41                                                             
C 24.16  4.65 32.07                                                             
C 24.16  4.65 43.73                                                             
C 24.16  4.65 55.40                                                             
C 28.18  2.32  8.75                                                             
C 28.18  2.32 20.41                                                             
C 28.18  2.32 32.07                                                             
C 28.18  2.32 43.73                                                             
C 28.18  2.32 55.40                                                             
C 12.08 16.27  8.75                                                             
C 12.08 16.27 20.41                                                             
C 12.08 16.27 32.07                                                             
C 12.08 16.27 43.73                                                             
C 12.08 16.27 55.40                                                             
C 16.10 13.95  8.75                                                             
C 16.10 13.95 20.41                                                             
C 16.10 13.95 32.07                                                             
C 16.10 13.95 43.73                                                             
C 16.10 13.95 55.40                                                             
C 20.13 11.62  8.75                                                             
C 20.13 11.62 20.41                                                             
C 20.13 11.62 32.07                                                             
C 20.13 11.62 43.73                                                             
C 20.13 11.62 55.40                                                             
C 24.16  9.30  8.75                                                             
C 24.16  9.30 20.41                                                             
C 24.16  9.30 32.07                                                             
C 24.16  9.30 43.73                                                             
C 24.16  9.30 55.40                                                             
C 28.18  6.97  8.75                                                             
C 28.18  6.97 20.41                                                             
C 28.18  6.97 32.07                                                             
C 28.18  6.97 43.73                                                             
C 28.18  6.97 55.40                                                             
C 20.13 16.27  8.75                                                             
C 20.13 16.27 20.41                                                             
C 20.13 16.27 32.07                                                             
C 20.13 16.27 43.73                                                             
C 20.13 16.27 55.40                                                             
C 24.16 13.95  8.75                                                             
C 24.16 13.95 20.41                                                             
C 24.16 13.95 32.07                                                             
C 24.16 13.95 43.73                                                             
C 24.16 13.95 55.40                                                             
C 28.18 11.62  8.75                                                             
C 28.18 11.62 20.41                                                             
C 28.18 11.62 32.07                                                             
C 28.18 11.62 43.73                                                             
C 28.18 11.62 55.40                                                             
C 28.18 16.27  8.75                                                             
C 28.18 16.27 20.41                                                             
C 28.18 16.27 32.07                                                             
C 28.18 16.27 43.73                                                             
C 28.18 16.27 55.40                                                             
C  1.34  2.32  2.92                                                             
C  1.34  2.32 14.58                                                             
C  1.34  2.32 26.24                                                             
C  1.34  2.32 37.90                                                             
C  1.34  2.32 49.56                                                             
C  5.37  0.00  2.92                                                             
C  5.37  0.00 14.58                                                             
C  5.37  0.00 26.24                                                             
C  5.37  0.00 37.90                                                             
C  5.37  0.00 49.56                                                             
C  1.34  6.97  2.92                                                             
C  1.34  6.97 14.58                                                             
C  1.34  6.97 26.24                                                             
C  1.34  6.97 37.90                                                             
C  1.34  6.97 49.56                                                             
C  5.37  4.65  2.92                                                             
C  5.37  4.65 14.58                                                             
C  5.37  4.65 26.24                                                             
C  5.37  4.65 37.90                                                             
C  5.37  4.65 49.56                                                             
C  9.39  2.32  2.92                                                             
C  9.39  2.32 14.58                                                             
C  9.39  2.32 26.24                                                             
C  9.39  2.32 37.90                                                             
C  9.39  2.32 49.56                                                             
C 13.42  0.00  2.92                                                             
C 13.42  0.00 14.58                                                             
C 13.42  0.00 26.24                                                             
C 13.42  0.00 37.90                                                             
C 13.42  0.00 49.56                                                             
C  1.34 11.62  2.92                                                             
C  1.34 11.62 14.58                                                             
C  1.34 11.62 26.24                                                             
C  1.34 11.62 37.90                                                             
C  1.34 11.62 49.56                                                             
C  5.37  9.30  2.92                                                             
C  5.37  9.30 14.58                                                             
C  5.37  9.30 26.24                                                             
C  5.37  9.30 37.90                                                             
C  5.37  9.30 49.56                                                             
C  9.39  6.97  2.92                                                             
C  9.39  6.97 14.58                                                             
C  9.39  6.97 26.24                                                             
C  9.39  6.97 37.90                                                             
C  9.39  6.97 49.56                                                             
C 13.42  4.65  2.92                                                             
C 13.42  4.65 14.58                                                             
C 13.42  4.65 26.24                                                             
C 13.42  4.65 37.90                                                             
C 13.42  4.65 49.56                                                             
C 17.45  2.32  2.92                                                             
C 17.45  2.32 14.58                                                             
C 17.45  2.32 26.24                                                             
C 17.45  2.32 37.90                                                             
C 17.45  2.32 49.56                                                             
C 21.47  0.00  2.92                                                             
C 21.47  0.00 14.58                                                             
C 21.47  0.00 26.24                                                             
C 21.47  0.00 37.90                                                             
C 21.47  0.00 49.56                                                             
C  1.34 16.27  2.92                                                             
C  1.34 16.27 14.58                                                             
C  1.34 16.27 26.24                                                             
C  1.34 16.27 37.90                                                             
C  1.34 16.27 49.56                                                             
C  5.37 13.95  2.92                                                             
C  5.37 13.95 14.58                                                             
C  5.37 13.95 26.24                                                             
C  5.37 13.95 37.90                                                             
C  5.37 13.95 49.56                                                             
C  9.39 11.62  2.92                                                             
C  9.39 11.62 14.58                                                             
C  9.39 11.62 26.24                                                             
C  9.39 11.62 37.90                                                             
C  9.39 11.62 49.56                                                             
C 13.42  9.30  2.92                                                             
C 13.42  9.30 14.58                                                             
C 13.42  9.30 26.24                                                             
C 13.42  9.30 37.90                                                             
C 13.42  9.30 49.56                                                             
C 17.45  6.97  2.92                                                             
C 17.45  6.97 14.58                                                             
C 17.45  6.97 26.24                                                             
C 17.45  6.97 37.90                                                             
C 17.45  6.97 49.56                                                             
C 21.47  4.65  2.92                                                             
C 21.47  4.65 14.58                                                             
C 21.47  4.65 26.24                                                             
C 21.47  4.65 37.90                                                             
C 21.47  4.65 49.56                                                             
C 25.50  2.32  2.92                                                             
C 25.50  2.32 14.58                                                             
C 25.50  2.32 26.24                                                             
C 25.50  2.32 37.90                                                             
C 25.50  2.32 49.56                                                             
C 29.52  0.00  2.92                                                             
C 29.52  0.00 14.58                                                             
C 29.52  0.00 26.24                                                             
C 29.52  0.00 37.90                                                             
C 29.52  0.00 49.56                                                             
C  9.39 16.27  2.92                                                             
C  9.39 16.27 14.58                                                             
C  9.39 16.27 26.24                                                             
C  9.39 16.27 37.90                                                             
C  9.39 16.27 49.56                                                             
C 13.42 13.95  2.92                                                             
C 13.42 13.95 14.58                                                             
C 13.42 13.95 26.24                                                             
C 13.42 13.95 37.90                                                             
C 13.42 13.95 49.56                                                             
C 17.45 11.62  2.92                                                             
C 17.45 11.62 14.58                                                             
C 17.45 11.62 26.24                                                             
C 17.45 11.62 37.90                                                             
C 17.45 11.62 49.56                                                             
C 21.47  9.30  2.92                                                             
C 21.47  9.30 14.58                                                             
C 21.47  9.30 26.24                                                             
C 21.47  9.30 37.90                                                             
C 21.47  9.30 49.56                                                             
C 25.50  6.97  2.92                                                             
C 25.50  6.97 14.58                                                             
C 25.50  6.97 26.24                                                             
C 25.50  6.97 37.90                                                             
C 25.50  6.97 49.56                                                             
C 29.52  4.65  2.92                                                             
C 29.52  4.65 14.58                                                             
C 29.52  4.65 26.24                                                             
C 29.52  4.65 37.90                                                             
C 29.52  4.65 49.56                                                             
C 17.45 16.27  2.92                                                             
C 17.45 16.27 14.58                                                             
C 17.45 16.27 26.24                                                             
C 17.45 16.27 37.90                                                             
C 17.45 16.27 49.56                                                             
C 21.47 13.95  2.92                                                             
C 21.47 13.95 14.58                                                             
C 21.47 13.95 26.24                                                             
C 21.47 13.95 37.90                                                             
C 21.47 13.95 49.56                                                             
C 25.50 11.62  2.92                                                             
C 25.50 11.62 14.58                                                             
C 25.50 11.62 26.24                                                             
C 25.50 11.62 37.90                                                             
C 25.50 11.62 49.56                                                             
C 29.52  9.30  2.92                                                             
C 29.52  9.30 14.58                                                             
C 29.52  9.30 26.24                                                             
C 29.52  9.30 37.90                                                             
C 29.52  9.30 49.56                                                             
C 25.50 16.27  2.92                                                             
C 25.50 16.27 14.58                                                             
C 25.50 16.27 26.24                                                             
C 25.50 16.27 37.90                                                             
C 25.50 16.27 49.56                                                             
C 29.52 13.95  2.92                                                             
C 29.52 13.95 14.58                                                             
C 29.52 13.95 26.24                                                             
C 29.52 13.95 37.90                                                             
C 29.52 13.95 49.56                                                             
C  2.68  0.00  8.75                                                             
C  2.68  0.00 20.41                                                             
C  2.68  0.00 32.07                                                             
C  2.68  0.00 43.73                                                             
C  2.68  0.00 55.40                                                             
C  2.68  4.65  8.75                                                             
C  2.68  4.65 20.41                                                             
C  2.68  4.65 32.07                                                             
C  2.68  4.65 43.73                                                             
C  2.68  4.65 55.40                                                             
C  6.71  2.32  8.75                                                             
C  6.71  2.32 20.41                                                             
C  6.71  2.32 32.07                                                             
C  6.71  2.32 43.73                                                             
C  6.71  2.32 55.40                                                             
C 10.74  0.00  8.75                                                             
C 10.74  0.00 20.41                                                             
C 10.74  0.00 32.07                                                             
C 10.74  0.00 43.73                                                             
C 10.74  0.00 55.40                                                             
C  2.68  9.30  8.75                                                             
C  2.68  9.30 20.41                                                             
C  2.68  9.30 32.07                                                             
C  2.68  9.30 43.73                                                             
C  2.68  9.30 55.40                                                             
C  6.71  6.97  8.75                                                             
C  6.71  6.97 20.41                                                             
C  6.71  6.97 32.07                                                             
C  6.71  6.97 43.73                                                             
C  6.71  6.97 55.40                                                             
C 10.74  4.65  8.75                                                             
C 10.74  4.65 20.41                                                             
C 10.74  4.65 32.07                                                             
C 10.74  4.65 43.73                                                             
C 10.74  4.65 55.40                                                             
C 14.76  2.32  8.75                                                             
C 14.76  2.32 20.41                                                             
C 14.76  2.32 32.07                                                             
C 14.76  2.32 43.73                                                             
C 14.76  2.32 55.40                                                             
C 18.79  0.00  8.75                                                             
C 18.79  0.00 20.41                                                             
C 18.79  0.00 32.07                                                             
C 18.79  0.00 43.73                                                             
C 18.79  0.00 55.40                                                             
C  2.68 13.95  8.75                                                             
C  2.68 13.95 20.41                                                             
C  2.68 13.95 32.07                                                             
C  2.68 13.95 43.73                                                             
C  2.68 13.95 55.40                                                             
C  6.71 11.62  8.75                                                             
C  6.71 11.62 20.41                                                             
C  6.71 11.62 32.07                                                             
C  6.71 11.62 43.73                                                             
C  6.71 11.62 55.40                                                             
C 10.74  9.30  8.75                                                             
C 10.74  9.30 20.41                                                             
C 10.74  9.30 32.07                                                             
C 10.74  9.30 43.73                                                             
C 10.74  9.30 55.40                                                             
C 14.76  6.97  8.75                                                             
C 14.76  6.97 20.41                                                             
C 14.76  6.97 32.07                                                             
C 14.76  6.97 43.73                                                             
C 14.76  6.97 55.40                                                             
C 18.79  4.65  8.75                                                             
C 18.79  4.65 20.41                                                             
C 18.79  4.65 32.07                                                             
C 18.79  4.65 43.73                                                             
C 18.79  4.65 55.40                                                             
C 22.81  2.32  8.75                                                             
C 22.81  2.32 20.41                                                             
C 22.81  2.32 32.07                                                             
C 22.81  2.32 43.73                                                             
C 22.81  2.32 55.40                                                             
C 26.84  0.00  8.75                                                             
C 26.84  0.00 20.41                                                             
C 26.84  0.00 32.07                                                             
C 26.84  0.00 43.73                                                             
C 26.84  0.00 55.40                                                             
C  6.71 16.27  8.75                                                             
C  6.71 16.27 20.41                                                             
C  6.71 16.27 32.07                                                             
C  6.71 16.27 43.73                                                             
C  6.71 16.27 55.40                                                             
C 10.74 13.95  8.75                                                             
C 10.74 13.95 20.41                                                             
C 10.74 13.95 32.07                                                             
C 10.74 13.95 43.73                                                             
C 10.74 13.95 55.40                                                             
C 14.76 11.62  8.75                                                             
C 14.76 11.62 20.41                                                             
C 14.76 11.62 32.07                                                             
C 14.76 11.62 43.73                                                             
C 14.76 11.62 55.40                                                             
C 18.79  9.30  8.75                                                             
C 18.79  9.30 20.41                                                             
C 18.79  9.30 32.07                                                             
C 18.79  9.30 43.73                                                             
C 18.79  9.30 55.40                                                             
C 22.81  6.97  8.75                                                             
C 22.81  6.97 20.41                                                             
C 22.81  6.97 32.07                                                             
C 22.81  6.97 43.73                                                             
C 22.81  6.97 55.40                                                             
C 26.84  4.65  8.75                                                             
C 26.84  4.65 20.41                                                             
C 26.84  4.65 32.07                                                             
C 26.84  4.65 43.73                                                             
C 26.84  4.65 55.40                                                             
C 30.86  2.32  8.75                                                             
C 30.86  2.32 20.41                                                             
C 30.86  2.32 32.07                                                             
C 30.86  2.32 43.73                                                             
C 30.86  2.32 55.40                                                             
C 14.76 16.27  8.75                                                             
C 14.76 16.27 20.41                                                             
C 14.76 16.27 32.07                                                             
C 14.76 16.27 43.73                                                             
C 14.76 16.27 55.40                                                             
C 18.79 13.95  8.75                                                             
C 18.79 13.95 20.41                                                             
C 18.79 13.95 32.07                                                             
C 18.79 13.95 43.73                                                             
C 18.79 13.95 55.40                                                             
C 22.81 11.62  8.75                                                             
C 22.81 11.62 20.41                                                             
C 22.81 11.62 32.07                                                             
C 22.81 11.62 43.73                                                             
C 22.81 11.62 55.40                                                             
C 26.84  9.30  8.75                                                             
C 26.84  9.30 20.41                                                             
C 26.84  9.30 32.07                                                             
C 26.84  9.30 43.73                                                             
C 26.84  9.30 55.40                                                             
C 30.86  6.97  8.75                                                             
C 30.86  6.97 20.41                                                             
C 30.86  6.97 32.07                                                             
C 30.86  6.97 43.73                                                             
C 30.86  6.97 55.40                                                             
C 22.81 16.27  8.75                                                             
C 22.81 16.27 20.41                                                             
C 22.81 16.27 32.07                                                             
C 22.81 16.27 43.73                                                             
C 22.81 16.27 55.40                                                             
C 26.84 13.95  8.75                                                             
C 26.84 13.95 20.41                                                             
C 26.84 13.95 32.07                                                             
C 26.84 13.95 43.73                                                             
C 26.84 13.95 55.40                                                             
C 30.86 11.62  8.75                                                             
C 30.86 11.62 20.41                                                             
C 30.86 11.62 32.07                                                             
C 30.86 11.62 43.73                                                             
C 30.86 11.62 55.40                                                             
C 30.86 16.27  8.75                                                             
C 30.86 16.27 20.41                                                             
C 30.86 16.27 32.07                                                             
C 30.86 16.27 43.73                                                             
C 30.86 16.27 55.40                                                             
%ENDBLOCK POSITIONS_ABS                                                         

--------------------------------------------------------------------------------
-------------------------------- END INPUT FILE --------------------------------
--------------------------------------------------------------------------------


 
<<<<<<<<<<<<<<<<<<<<<<<<<<<<<<<<< Full system >>>>>>>>>>>>>>>>>>>>>>>>>>>>>>>>>>
<<<<<<<<<<<<<<<<<<<<<<<<<<< PAW Dataset information >>>>>>>>>>>>>>>>>>>>>>>>>>>
File: ~/pp/paw/c_pbe_abinit.paw; rc = 1.25 bohr; shape type =  3; rshape = 1.25 bohr;
  Atomic number:  6;  ionic charge:  4.000000
    Partial Wave 1: l = 0
    Partial Wave 2: l = 0
    Partial Wave 3: l = 1
    Partial Wave 4: l = 1
  Core charge supplied for Nonlinear Core Corrections
<<<<<<<<<<<<<<<<<<<<<<<<<<<<<<<<<<<<<<< >>>>>>>>>>>>>>>>>>>>>>>>>>>>>>>>>>>>>>>

-------------------------- Atom counting information ---------------------------
Symbol    Natoms    Nngwfs    Nprojs
  C        640      2560      5120
.......   ......    ......    ......
Totals:    640      2560      5120
--------------------------------------------------------------------------------

=============================== PSINC grid sizes ===============================
                      Simulation cell:   63 x  35 x 115
                              FFT-box:   63 x  35 x 111
                                  PPD:    7 x   5 x   1
Grid space d1=  0.511269841270a0 (KE cutoff=  29.06054Eh = 790.77748eV)
Grid space d2=  0.531142857143a0 (KE cutoff=  26.92659Eh = 732.70972eV)
Grid space d3=  0.507043478261a0 (KE cutoff=  29.54701Eh = 804.01516eV)
================================================================================
  
WARNING in cell_grid_distribute:
Average of less than one 23-slab per node, so workload cannot be
equally balanced between nodes.

********************* Fourier parallelisation information **********************
       Coarse grid (whole simulation cell) dimensions:     63    35   115
          Real-space ('12') slabs/node (min max mean):      2     3     2
         Recip-space ('23') slabs/node (min max mean):      0     1     0
********************************************************************************

********************* Fourier parallelisation information **********************
       Double grid (whole simulation cell) dimensions:    126    70   230
          Real-space ('12') slabs/node (min max mean):      5     6     5
         Recip-space ('23') slabs/node (min max mean):      1     2     1
********************************************************************************

Atom SCF Calculation for C  : Z (AE atom) =   6 : Z (PS atom) =   4
Config String: 2s2 2p2
Orbitals (num,occ):  2     2.00 2.00
Orbitals   (num,l):  2        0    1
Real-space Grid (nr,dr,rmax): 1293    0.0069659443    9.0000000000
Spherical Bessel Basis (nsws,lmax,cutoff):   37    2  161.4736382572
Confining potential (l,width,scale):  0    3.0000000000  100.0000000000
Confining potential (l,width,scale):  1    3.0000000000  100.0000000000
  1         -5.4468762137   -1.3311033486    4.5135257941   -1.6400141247
  2         -5.4563922850   -1.3925089082    4.4492606193   -1.6178955363
  3         -5.4591606672   -1.4162756486    4.4239316220   -1.6104942496
  4         -5.4639338613   -1.4240698331    4.4156521757   -1.6083566999
  5         -5.4657436445   -1.4272842389    4.4122438165   -1.6075116305
  6         -5.4665049591   -1.4285796230    4.4108740217   -1.6071800157
  7         -5.4668137280   -1.4291083664    4.4103163978   -1.6070462938
  8         -5.4669397753   -1.4293243321    4.4100892688   -1.6069921003
  9         -5.4669910134   -1.4294128082    4.4099964732   -1.6069700140
 10         -5.4670118707   -1.4294491026    4.4099585094   -1.6069609935
 11         -5.4670203648   -1.4294640137    4.4099429536   -1.6069573023
 12         -5.4670238269   -1.4294701480    4.4099365706   -1.6069557895
 13         -5.4670252393   -1.4294726750    4.4099339478   -1.6069551687
 14         -5.4670258160   -1.4294737172    4.4099328686   -1.6069549136
 15         -5.4670260518   -1.4294741476    4.4099324241   -1.6069548086
 16         -5.4670261483   -1.4294743256    4.4099322407   -1.6069547654
Atom SCF converged after  16 iterations to a total energy of     -5.46702615

Determining parallel strategy ...
... using space-filling curve
... NGWF load balancing: max     64;  min     64;  average     64
... Projector load balancing: max    128;  min    128;  average    128
... done
Calculating Ewald energy ...
              Ewald: real-space energy =    9554.967308
        Ewald: reciprocal-space energy =       0.031274
         Ewald: (sum_charge)**2 Energy =   11633.727624
         Ewald: (sum_charge**2) Energy =     919.726924
                          Ewald Energy =   -2998.455967
Basis initialisation ...... NGWF spheres initialised
... Projector spheres initialised
... NGWF tight boxes initialised
... Projector tight boxes initialised
... Tight-boxes gathered
... NGWF basis size (local,global):     694356  27887328
... PAW projector initialisation
... done

============================= Charge Augmentation ==============================
                           Aug box size:   11 x  11 x  11
================================================================================

========================== Sparse matrix information ===========================
                        Overlap matrix filling:  46.25%
                        Density kernel filling: 100.00%
              NGWF-Proj overlap matrix filling:  13.12%
                    Aug Overlap matrix filling:  49.38%
                    Hamiltonian matrix filling:  49.38%
                  NGWF diagonal matrix filling:   0.16%
                             KS matrix filling: 100.00% 
                           KSKS matrix filling: 100.00% 
================================================================================

Sparse matrix initialisation ... done
NGWF initialisation ...... done
============ Calculation of NGWF S^-1 using Hotelling algorithm ================ 
         Iteration  |  Frobenius norm and Maximum abs value    (of I-S*S_n^-1)   
               1       0.49288806E+02     0.97892689E+00
               2       0.48217949E+02     0.95960415E+00
               3       0.46564887E+02     0.92523770E+00
               4       0.44348907E+02     0.86887039E+00
               5       0.41638498E+02     0.78475946E+00
               6       0.38404694E+02     0.69459858E+00
               7       0.34882765E+02     0.64322531E+00
               8       0.31492565E+02     0.60093200E+00
               9       0.28060759E+02     0.56003080E+00
              10       0.23884832E+02     0.50045849E+00
              11       0.18417674E+02     0.40355248E+00
              12       0.11792622E+02     0.26684513E+00
              13       0.54419430E+01     0.12254751E+00
              14       0.13758044E+01     0.28970905E-01
              15       0.10460731E+00     0.19537498E-02
              16       0.74084264E-03     0.11172123E-04
              17       0.54075327E-07     0.52398985E-09
              18       0.87826776E-13     0.42188475E-14
================================================================================
Calculating core density ...
================================= Core Density =================================
               Core den box size:   21 x  21 x  21
================================================================================
 ... done
Up spin density kernel initialisation ...... done

Writing density kernel to file "3.085688_GO_manual_4x64graphite.dkn" ... done

>>> Optimising kernel for current NGWFs:

--------------------------- Ensemble-DFT optimisation --------------------------
Running ScaLAPACK on   40 processor(s).

--------------------------------------------------------------------------------
  Iter                              Commutator    Free_energy(A=E-TS)     DeltaA
#    0                          0.000058247037   -3654.40919259416114  -3.65E+03

Step                       =       0.381966011250
Energy                     =   -3654.409147186770
Entropy (-TS)              =      -0.000045406852
Free energy (A=E-TS)       =   -3654.409192594161
Est. 0K Energy 0.5*(E+A)   =   -3654.409169890465
Residual Non-orthogonality =       0.000000000000
Residual N_electrons       =      -0.000000000539

Spin          Integrated_Ne            Fermi_level     Delta_Fermi_level
   1      2560.000000002135         0.252659093965              2.53E-01

                           Spin 1          
     Orb      H-eigenvalues     Occupancies
       1 |    -0.4713674953    1.0000000000 | 
                          ------
    1276 |     0.2203972373    0.9999623631 | 
    1277 |     0.2209934509    0.9999545667 | 
    1278 |     0.2209985866    0.9999544930 | 
    1279 |     0.2212265732    0.9999510961 | 
    1280 |     0.2218098347    0.9999412068 | 
                 - Gap at zero temperature -
    1281 |     0.2856101024    0.0000302766 | 
    1282 |     0.2856182473    0.0000301988 | 
    1283 |     0.2857782965    0.0000287105 | 
    1284 |     0.2858420422    0.0000281384 | 
    1285 |     0.2858501536    0.0000280664 | 
                          ------
    2560 |     1.0831544754    0.0000000000 | 

                       |  Abs_value |  Threshold | Converged
     Delta_Free_energy |   3.65E+03 |   1.00E-06 |        No
     Delta_Energy      |   3.65E+03 |   1.00E-04 |        No
     Delta_Entropy     |   4.54E-05 |   1.00E-04 |       Yes
     Commutator        |   5.82E-05 |   1.00E-05 |        No
     Delta_Fermi_level |   2.53E-01 |   1.00E-03 |        No

  Line search of the free energy minimum:
  Step_type        Step             Free_energy   Predicted_free_energy
.   Initial    0.000000    -3654.40919259416114
.    Trial1    0.381966    -3654.41257372045629
.    Trial2    0.618034    -3654.41182150880923
. Quadratic    0.418206    -3654.41259848732079    -3654.41259930273736

--------------------------------------------------------------------------------
  Iter                              Commutator    Free_energy(A=E-TS)     DeltaA
#    1                          0.000024049127   -3654.41259848732079  -3.41E-03

Step                       =       0.418206397149
Energy                     =   -3654.412554208962
Entropy (-TS)              =      -0.000044278662
Free energy (A=E-TS)       =   -3654.412598487321
Est. 0K Energy 0.5*(E+A)   =   -3654.412576348142
Residual Non-orthogonality =       0.000000000000
Residual N_electrons       =       0.000000000304

Spin          Integrated_Ne            Fermi_level     Delta_Fermi_level
   1      2559.999999998810         0.255268841675              2.61E-03

                           Spin 1          
     Orb      H-eigenvalues     Occupancies
       1 |    -0.4696007189    1.0000000000 | 
                          ------
    1276 |     0.2229933125    0.9999625253 | 
    1277 |     0.2234666617    0.9999564838 | 
    1278 |     0.2234791370    0.9999563121 | 
    1279 |     0.2238457617    0.9999509501 | 
    1280 |     0.2243140344    0.9999431340 | 
                 - Gap at zero temperature -
    1281 |     0.2883050133    0.0000294732 | 
    1282 |     0.2883271364    0.0000292681 | 
    1283 |     0.2885107061    0.0000276198 | 
    1284 |     0.2885765810    0.0000270512 | 
    1285 |     0.2886008564    0.0000268446 | 
                          ------
    2560 |     1.0876772707    0.0000000000 | 

                       |  Abs_value |  Threshold | Converged
     Delta_Free_energy |   3.41E-03 |   1.00E-06 |        No
     Delta_Energy      |   3.41E-03 |   1.00E-04 |        No
     Delta_Entropy     |   1.13E-06 |   1.00E-04 |       Yes
     Commutator        |   2.40E-05 |   1.00E-05 |        No
     Delta_Fermi_level |   2.61E-03 |   1.00E-03 |        No

  Line search of the free energy minimum:
  Step_type        Step             Free_energy   Predicted_free_energy
.   Initial    0.000000    -3654.41259848732079
.    Trial1    0.418206    -3654.41305618543038
.    Trial2    0.640432    -3654.41259520506355
. Quadratic    0.319698    -3654.41310469256132    -3654.41310419970569

--------------------------------------------------------------------------------
  Iter                              Commutator    Free_energy(A=E-TS)     DeltaA
#    2                          0.000017079799   -3654.41310469256132  -5.06E-04

Step                       =       0.319697989435
Energy                     =   -3654.413061157145
Entropy (-TS)              =      -0.000043535262
Free energy (A=E-TS)       =   -3654.413104692561
Est. 0K Energy 0.5*(E+A)   =   -3654.413082924853
Residual Non-orthogonality =       0.000000000000
Residual N_electrons       =      -0.000000000154

Spin          Integrated_Ne            Fermi_level     Delta_Fermi_level
   1      2560.000000000599         0.256337541203              1.07E-03

                           Spin 1          
     Orb      H-eigenvalues     Occupancies
       1 |    -0.4688267813    1.0000000000 | 
                          ------
    1276 |     0.2239924001    0.9999633400 | 
    1277 |     0.2244910145    0.9999570889 | 
    1278 |     0.2245051172    0.9999568974 | 
    1279 |     0.2248325340    0.9999522028 | 
    1280 |     0.2253274560    0.9999441179 | 
                 - Gap at zero temperature -
    1281 |     0.2894339082    0.0000289183 | 
    1282 |     0.2894572027    0.0000287064 | 
    1283 |     0.2896388740    0.0000271060 | 
    1284 |     0.2897158343    0.0000264552 | 
    1285 |     0.2897412523    0.0000262437 | 
                          ------
    2560 |     1.0896607496    0.0000000000 | 

                       |  Abs_value |  Threshold | Converged
     Delta_Free_energy |   5.06E-04 |   1.00E-06 |        No
     Delta_Energy      |   5.07E-04 |   1.00E-04 |        No
     Delta_Entropy     |   7.43E-07 |   1.00E-04 |       Yes
     Commutator        |   1.71E-05 |   1.00E-05 |        No
     Delta_Fermi_level |   1.07E-03 |   1.00E-03 |        No

  Line search of the free energy minimum:
  Step_type        Step             Free_energy   Predicted_free_energy
.   Initial    0.000000    -3654.41310469256132
.    Trial1    0.319698    -3654.41329360746613
.    Trial2    0.579550    -3654.41286029617368
. Quadratic    0.235668    -3654.41332128621389    -3654.41332112364353

--------------------------------------------------------------------------------
  Iter                              Commutator    Free_energy(A=E-TS)     DeltaA
#    3                          0.000011840923   -3654.41332128621389  -2.17E-04

Step                       =       0.235667922756
Energy                     =   -3654.413278101429
Entropy (-TS)              =      -0.000043184271
Free energy (A=E-TS)       =   -3654.413321286214
Est. 0K Energy 0.5*(E+A)   =   -3654.413299693822
Residual Non-orthogonality =       0.000000000000
Residual N_electrons       =      -0.000000000515

Spin          Integrated_Ne            Fermi_level     Delta_Fermi_level
   1      2560.000000002003         0.256878021889              5.40E-04

                           Spin 1          
     Orb      H-eigenvalues     Occupancies
       1 |    -0.4684348259    1.0000000000 | 
                          ------
    1276 |     0.2245049126    0.9999636623 | 
    1277 |     0.2250059336    0.9999574339 | 
    1278 |     0.2250201276    0.9999572427 | 
    1279 |     0.2253417460    0.9999526724 | 
    1280 |     0.2258391391    0.9999446238 | 
                 - Gap at zero temperature -
    1281 |     0.2900017559    0.0000286695 | 
    1282 |     0.2900250555    0.0000284593 | 
    1283 |     0.2902074502    0.0000268666 | 
    1284 |     0.2902827997    0.0000262349 | 
    1285 |     0.2903084949    0.0000260229 | 
                          ------
    2560 |     1.0906626268    0.0000000000 | 

                       |  Abs_value |  Threshold | Converged
     Delta_Free_energy |   2.17E-04 |   1.00E-06 |        No
     Delta_Energy      |   2.17E-04 |   1.00E-04 |        No
     Delta_Entropy     |   3.51E-07 |   1.00E-04 |       Yes
     Commutator        |   1.18E-05 |   1.00E-05 |        No
     Delta_Fermi_level |   5.40E-04 |   1.00E-03 |       Yes

  Line search of the free energy minimum:
  Step_type        Step             Free_energy   Predicted_free_energy
.   Initial    0.000000    -3654.41332128621389
.    Trial1    0.235668    -3654.41342412176573
.    Trial2    0.527617    -3654.41334688273901
. Quadratic    0.282068    -3654.41342696424863    -3654.41342698186145

--------------------------------------------------------------------------------
  Iter                              Commutator    Free_energy(A=E-TS)     DeltaA
#    4                          0.000009061447   -3654.41342696424863  -1.06E-04

Step                       =       0.282067596636
Energy                     =   -3654.413384094805
Entropy (-TS)              =      -0.000042869512
Free energy (A=E-TS)       =   -3654.413426964249
Est. 0K Energy 0.5*(E+A)   =   -3654.413405529527
Residual Non-orthogonality =       0.000000000000
Residual N_electrons       =       0.000000000068

[...]
 C   275 -- C   555       -0.09      5.37000
 C   274 -- C   554       -0.09      5.37000
 C   273 -- C   553       -0.09      5.37000
 C   272 -- C   552       -0.09      5.37000
 C   271 -- C   551       -0.09      5.37000
 C   270 -- C   550       -0.09      5.37000
 C   269 -- C   549       -0.09      5.37000
 C   268 -- C   548       -0.09      5.37000
 C   267 -- C   547       -0.09      5.37000
 C   266 -- C   546       -0.09      5.37000
 C   130 -- C   465       -0.09      5.37000
 C   129 -- C   464       -0.09      5.37000
 C   128 -- C   463       -0.09      5.37000
 C   127 -- C   462       -0.09      5.37000
 C   126 -- C   461       -0.09      5.37000
 C   240 -- C   525       -0.09      5.37000
 C   239 -- C   524       -0.09      5.37000
 C   238 -- C   523       -0.09      5.37000
 C   237 -- C   522       -0.09      5.37000
 C   236 -- C   521       -0.09      5.37000
 C    23 -- C   478       -0.09      5.37202
 C    49 -- C   469       -0.09      5.37202
 C    48 -- C   468       -0.09      5.37202
 C    47 -- C   467       -0.09      5.37202
 C    22 -- C   477       -0.09      5.37202
 C    46 -- C   466       -0.09      5.37202
 C    21 -- C   476       -0.09      5.37202
 C    25 -- C   480       -0.09      5.37202
 C    24 -- C   479       -0.09      5.37202
 C    50 -- C   470       -0.09      5.37202
 C    24 -- C   449       -0.09      5.37202
 C     6 -- C   416       -0.09      5.37202
 C    23 -- C   448       -0.09      5.37202
 C    22 -- C   447       -0.09      5.37202
 C    10 -- C   470       -0.09      5.37202
 C     5 -- C   450       -0.09      5.37202
 C    21 -- C   446       -0.09      5.37202
 C    10 -- C   420       -0.09      5.37202
 C     9 -- C   469       -0.09      5.37202
 C     9 -- C   419       -0.09      5.37202
 C     8 -- C   468       -0.09      5.37202
 C     4 -- C   449       -0.09      5.37202
 C     8 -- C   418       -0.09      5.37202
 C   285 -- C   580       -0.09      5.37202
 C   284 -- C   579       -0.09      5.37202
 C   283 -- C   578       -0.09      5.37202
 C   282 -- C   577       -0.09      5.37202
 C   281 -- C   576       -0.09      5.37202
 C     2 -- C   447       -0.09      5.37202
 C     7 -- C   467       -0.09      5.37202
 C   260 -- C   605       -0.09      5.37202
 C   259 -- C   604       -0.09      5.37202
 C   258 -- C   603       -0.09      5.37202
 C   257 -- C   602       -0.09      5.37202
 C   256 -- C   601       -0.09      5.37202
 C     7 -- C   417       -0.09      5.37202
 C     1 -- C   446       -0.09      5.37202
 C     6 -- C   466       -0.09      5.37202
 C    25 -- C   450       -0.09      5.37202
 C     3 -- C   448       -0.09      5.37202
 C   219 -- C   569       -0.09      5.37202
 C   218 -- C   568       -0.09      5.37202
 C   217 -- C   567       -0.09      5.37202
 C   216 -- C   566       -0.09      5.37202
 C   250 -- C   540       -0.09      5.37202
 C   249 -- C   539       -0.09      5.37202
 C   248 -- C   538       -0.09      5.37202
 C   247 -- C   537       -0.09      5.37202
 C   246 -- C   536       -0.09      5.37202
 C   220 -- C   570       -0.09      5.37202
 C   205 -- C   550       -0.09      5.37202
 C   204 -- C   549       -0.09      5.37202
 C   203 -- C   548       -0.09      5.37202
 C   202 -- C   547       -0.09      5.37202
 C   201 -- C   546       -0.09      5.37202
 C    95 -- C   365       -0.09      5.37202
 C    94 -- C   364       -0.09      5.37202
 C    93 -- C   363       -0.09      5.37202
 C    92 -- C   362       -0.09      5.37202
 C    91 -- C   361       -0.09      5.37202
 C    65 -- C   395       -0.09      5.37202
 C    64 -- C   394       -0.09      5.37202
 C    63 -- C   393       -0.09      5.37202
 C    30 -- C   355       -0.09      5.37202
 C    62 -- C   392       -0.09      5.37202
 C    61 -- C   391       -0.09      5.37202
 C    29 -- C   354       -0.09      5.37202
 C   260 -- C   550       -0.09      5.37202
 C   259 -- C   549       -0.09      5.37202
 C    28 -- C   353       -0.09      5.37202
 C   258 -- C   548       -0.09      5.37202
 C   257 -- C   547       -0.09      5.37202
 C   256 -- C   546       -0.09      5.37202
 C    27 -- C   352       -0.09      5.37202
 C    26 -- C   351       -0.09      5.37202
 C    55 -- C   335       -0.09      5.37202
 C    54 -- C   334       -0.09      5.37202
 C    53 -- C   333       -0.09      5.37202
 C   230 -- C   580       -0.09      5.37202
 C   230 -- C   525       -0.09      5.37202
 C   229 -- C   579       -0.09      5.37202
 C   229 -- C   524       -0.09      5.37202
 C   228 -- C   578       -0.09      5.37202
 C    52 -- C   332       -0.09      5.37202
 C   228 -- C   523       -0.09      5.37202
 C   227 -- C   577       -0.09      5.37202
 C   227 -- C   522       -0.09      5.37202
 C   226 -- C   576       -0.09      5.37202
 C   226 -- C   521       -0.09      5.37202
 C    51 -- C   331       -0.09      5.37202
 C   220 -- C   515       -0.09      5.37202
 C   219 -- C   514       -0.09      5.37202
 C   218 -- C   513       -0.09      5.37202
 C   217 -- C   512       -0.09      5.37202
 C   216 -- C   511       -0.09      5.37202
 C   195 -- C   540       -0.09      5.37202
 C   195 -- C   500       -0.09      5.37202
 C   194 -- C   539       -0.09      5.37202
 C   194 -- C   499       -0.09      5.37202
 C   193 -- C   538       -0.09      5.37202
 C   193 -- C   498       -0.09      5.37202
 C   192 -- C   537       -0.09      5.37202
 C   192 -- C   497       -0.09      5.37202
 C   191 -- C   536       -0.09      5.37202
 C   191 -- C   496       -0.09      5.37202
 C   180 -- C   515       -0.09      5.37202
 C   179 -- C   514       -0.09      5.37202
 C   178 -- C   513       -0.09      5.37202
 C   177 -- C   512       -0.09      5.37202
 C   176 -- C   511       -0.09      5.37202
 C   150 -- C   440       -0.09      5.37202
 C   149 -- C   439       -0.09      5.37202
 C   148 -- C   438       -0.09      5.37202
 C   147 -- C   437       -0.09      5.37202
 C   146 -- C   436       -0.09      5.37202
 C   135 -- C   460       -0.09      5.37202
 C   134 -- C   459       -0.09      5.37202
 C   133 -- C   458       -0.09      5.37202
 C   132 -- C   457       -0.09      5.37202
 C   131 -- C   456       -0.09      5.37202
 C    11 -- C   331       -0.09      5.37202
 C    95 -- C   425       -0.09      5.37202
 C    94 -- C   424       -0.09      5.37202
 C    93 -- C   423       -0.09      5.37202
 C    92 -- C   422       -0.09      5.37202
 C    91 -- C   421       -0.09      5.37202
 C    85 -- C   355       -0.09      5.37202
 C    40 -- C   365       -0.09      5.37202
 C    84 -- C   354       -0.09      5.37202
 C    83 -- C   353       -0.09      5.37202
 C    82 -- C   352       -0.09      5.37202
 C    39 -- C   364       -0.09      5.37202
 C    81 -- C   351       -0.09      5.37202
 C    38 -- C   363       -0.09      5.37202
 C    37 -- C   362       -0.09      5.37202
 C    36 -- C   361       -0.09      5.37202
 C    15 -- C   335       -0.09      5.37202
 C    65 -- C   345       -0.09      5.37202
 C    64 -- C   344       -0.09      5.37202
 C    63 -- C   343       -0.09      5.37202
 C    30 -- C   325       -0.09      5.37202
 C    62 -- C   342       -0.09      5.37202
 C    14 -- C   334       -0.09      5.37202
 C    61 -- C   341       -0.09      5.37202
 C    29 -- C   324       -0.09      5.37202
 C    28 -- C   323       -0.09      5.37202
 C    13 -- C   333       -0.09      5.37202
 C    27 -- C   322       -0.09      5.37202
 C   120 -- C   395       -0.09      5.37202
 C    55 -- C   385       -0.09      5.37202
 C   119 -- C   394       -0.09      5.37202
 C   118 -- C   393       -0.09      5.37202
 C   117 -- C   392       -0.09      5.37202
 C    54 -- C   384       -0.09      5.37202
 C    26 -- C   321       -0.09      5.37202
 C   116 -- C   391       -0.09      5.37202
 C    53 -- C   383       -0.09      5.37202
 C    12 -- C   332       -0.09      5.37202
 C    52 -- C   382       -0.09      5.37202
 C    51 -- C   381       -0.09      5.37202
 C   106 -- C   436       -0.09      5.37202
 C   106 -- C   376       -0.09      5.37202
 C    80 -- C   410       -0.09      5.37202
 C    79 -- C   409       -0.09      5.37202
 C    78 -- C   408       -0.09      5.37202
 C    77 -- C   407       -0.09      5.37202
 C    76 -- C   406       -0.09      5.37202
 C   135 -- C   410       -0.09      5.37202
 C   134 -- C   409       -0.09      5.37202
 C   133 -- C   408       -0.09      5.37202
 C   132 -- C   407       -0.09      5.37202
 C   131 -- C   406       -0.09      5.37202
 C   110 -- C   440       -0.09      5.37202
 C   110 -- C   380       -0.09      5.37202
 C   109 -- C   439       -0.09      5.37202
 C   109 -- C   379       -0.09      5.37202
 C   108 -- C   438       -0.09      5.37202
 C   108 -- C   378       -0.09      5.37202
 C   107 -- C   437       -0.09      5.37202
 C   107 -- C   377       -0.09      5.37202
 C   215 -- C   635       -0.09      5.38000
 C   214 -- C   634       -0.09      5.38000
 C   213 -- C   633       -0.09      5.38000
 C   212 -- C   632       -0.09      5.38000
 C   211 -- C   631       -0.09      5.38000
 C   190 -- C   620       -0.09      5.38000
 C   189 -- C   619       -0.09      5.38000
 C   188 -- C   618       -0.09      5.38000
 C   187 -- C   617       -0.09      5.38000
 C   186 -- C   616       -0.09      5.38000
 C   175 -- C   595       -0.09      5.38000
 C   174 -- C   594       -0.09      5.38000
 C   173 -- C   593       -0.09      5.38000
 C   172 -- C   592       -0.09      5.38000
 C   171 -- C   591       -0.09      5.38000
 C   245 -- C   640       -0.09      5.38000
 C   244 -- C   639       -0.09      5.38000
 C   243 -- C   638       -0.09      5.38000
 C   242 -- C   637       -0.09      5.38000
 C   241 -- C   636       -0.09      5.38000
==================================================


=================== Orbital energy and occupancy information ===================

      Total number of orbitals:    2560
        Occupancy sum (kernel):    1280.000000000
   Occupancy sum (eigenvalues):    1280.000000000
                 HOMO-LUMO gap:       0.000007640 Eh
                 Mid-gap level:       0.324014599 Eh

                        Orbital | Energy (Eh) | Occupancy
                            1    -0.435311587   1.0000000
                        .......   ...........   .........
                         1272     0.257473202   0.9999847
                         1273     0.257918558   0.9999824
                         1274     0.257940638   0.9999822
                         1275     0.261602981   0.9999435
                         1276     0.261615598   0.9999433
                         1277     0.261619133   0.9999432
                         1278     0.262005308   0.9999358
                         1279     0.262040577   0.9999352
                         1280     0.262044078   0.9999351
                         1281     0.324010779   0.0000488
                        ....... -- gap at 0K -- .........
                         1282     0.324018419   0.0000487
                         1283     0.324266709   0.0000450
                         1284     0.324274357   0.0000449
                         1285     0.325406531   0.0000315
                         1286     0.325413221   0.0000315
                         1287     0.325682805   0.0000289
                         1288     0.325689480   0.0000288
                         1289     0.326265367   0.0000241
                         1290     0.326549845   0.0000220
                         1291     0.327009522   0.0000189
                        .......   ...........   .........
                         2560     1.181141244   0.0000000

================================================================================

===================== Writing canonical molecular orbitals =====================
| Orbital  Energy (eV)  Norm     |
| HOMO      8.81678191  1.000000 | Writing "3.085688_GO_manual_4x64graphite_HOMO.cube" ... done
Writing "3.085688_GO_manual_4x64graphite_HOMO.dx" ... done
| LUMO      8.81698982  1.000000 | Writing "3.085688_GO_manual_4x64graphite_LUMO.cube" ... done
Writing "3.085688_GO_manual_4x64graphite_LUMO.dx" ... done
================================================================================
 
===================== Density of States (DOS) calculation ======================
Writing "3.085688_GO_manual_4x64graphite_DOS.txt" ...  done
================================================================================
 
Writing bands to file "3.085688_GO_manual_4x64graphite.val_bands" ... done
 
================ Projected Density of States (pDOS) calculation ================
 
Constructing AM resolved functions  ...... done
Writing NGWF plot files in formats: CUBE DX ...  done
 
Performing overlap integrals ...  done
 
Computing pDOS weights ...  done
 
All bands spilling parameter =   3.86 %
Occupancy-weighted spilling parameter =   0.79 %
 
 => Outputting data for OptaDOS <=
 
Writing pDOS weights to file "3.085688_GO_manual_4x64graphite.val_pdos_bin" ... done
 
Writing band gradients to file "3.085688_GO_manual_4x64graphite.val_dome_bin" ... done
 
Writing Castep output cell file to "3.085688_GO_manual_4x64graphite-out.cell" ... done
 
 => Computing Gaussian smeared pDOS <= 
Writing "3.085688_GO_manual_4x64graphite_PDOS.txt" ...  done
 
 => Computing Occupancy-weighted Gaussian smeared pDOS <= 
Writing "3.085688_GO_manual_4x64graphite_occ_PDOS.txt" ...  done
  => Band centres: 
 S band centre of group 1:  -15.524558 eV
 P band centre of group 1:   -8.433088 eV
  Band centres done. <=
  => Integrated number of electrons in each AM band: 
 S num electrons of group 1:  574.694033
 P num electrons of group 1: 1964.968488
  Integrated number of electrons done. <=
================================================================================

------------------------------ TIMING INFORMATION ------------------------------
AVERAGE TIME:    4556.088s on     40 node(s)                                    
TOTAL TIME:      4556.089s on     40 node(s)                                    
================= AVERAGE TIMINGS FROM ALL NODES (CUMULATIVE) ==================
|| TAG                                    #calls    cpu time   %total  Gflops ||
|| work_imbalance                       :     1        0.00s   0.000%  ------ ||
|| paw_tcore_density                    :     1        0.01s   0.000%  ------ ||
|| paw_tcore_hartree_on_grid            :     1        0.01s   0.000%  ------ ||
|| paw_sphere_density_on_grid           :     1        0.01s   0.000%  ------ ||
|| sparse_set_to_garbage                :   183        0.03s   0.001%  ------ ||
|| paw_dij_hartree                      :   410        0.05s   0.001%  ------ ||
|| pseudo_make_structure_factor         :     1        0.06s   0.001%  ------ ||
|| basis_extract_function_from_box      :  2048        0.09s   0.002%  ------ ||
|| paw_species_calc_proj_prec_mat       :     1        0.12s   0.003%  ------ ||
|| paw_dataset_init                     :     1        0.25s   0.005%  ------ ||
|| density_init_guess_real              :     1        0.28s   0.006%  ------ ||
|| ngwfs_initialise_from_radial         :     2        0.67s   0.015%  ------ ||
|| restart_kernel_write                 :    17        0.76s   0.017%  ------ ||
|| dense_normal_eigensolve              :     1        0.97s   0.021%  ------ ||
|| sparse_init                          :     1        1.03s   0.023%  ------ ||
|| hartree_on_grid                      :   307        1.86s   0.041%  ------ ||
|| ewald_calculate_energy               :     1        2.30s   0.051%  ------ ||
|| projectors_init_fftbox_recip         :   161        2.96s   0.065%  ------ ||
|| basis_copy_function_to_box           : 28992        5.50s   0.121%  ------ ||
|| fourier_apply_box_pair               :  3040        6.25s   0.137% 426.255 ||
|| sw_init                              :     1        6.73s   0.148%  ------ ||
|| augmentation_screen_dij              :   314        7.08s   0.155%  ------ ||
|| sparse_embed_hotelling_invert_embed  :    31        9.49s   0.208%  ------ ||
|| ngwf_gradient_coeffs                 :    16       12.63s   0.277%  ------ ||
|| cell_grid_extract_box_real           : 12332       16.75s   0.368%  ------ ||
|| fourier_apply_cell_backward          :  9488       17.41s   0.382%  58.525 ||
|| fourier_apply_cell_forward           :  8875       19.09s   0.419%  49.915 ||
|| sparse_trace                         :  3728       20.25s   0.445%  ------ ||
|| cell_grid_deposit_box_real           : 39472       24.36s   0.535%  ------ ||
|| paw_dij_xc                           :   410       27.59s   0.605%  ------ ||
|| aug_nonlocal_mat                     :   394       42.22s   0.927%  ------ ||
|| density_fftbox_deposit_to_cell       : 19648       42.93s   0.942%  ------ ||
|| eigenstates_pdos                     :     1       55.15s   1.210%  ------ ||
|| eigenstates_calculate                :     1       59.26s   1.301%  ------ ||
|| augmentation_density_on_grid         :   307       60.07s   1.318%  ------ ||
|| hamiltonian_energy_components        :     4       67.93s   1.491%  ------ ||
|| function_ops_brappd_ketppd           :    64       69.98s   1.536%  ------ ||
|| nlxc_vdw_energy                      :   612       74.08s   1.626%  ------ ||
|| projectors_func_ovlp_box             :    32       79.83s   1.752%  ------ ||
|| xc_energy_potential                  :   306       85.54s   1.877%  ------ ||
|| properties_calculate                 :     1      104.86s   2.302%  ------ ||
|| integrals_kinetic                    :    31      121.53s   2.667%  ------ ||
|| dense_eigensolve                     :   271      128.47s   2.820%  ------ ||
|| restart_ngwfs_tightbox_output        :    15      138.72s   3.045%  ------ ||
|| potential_apply_to_ngwf_batch        :   392      151.72s   3.330%  ------ ||
|| sparse_product                       :  3708      166.30s   3.650%  ------ ||
|| basis_dot_function_with_box          : 9.978M     268.24s   5.888%  ------ ||
|| projectors_gradient_batch            :    64      282.77s   6.206%  ------ ||
|| edft_diag_ngwf_ham                   :   270      294.16s   6.456%  ------ ||
|| fourier_apply_box                    : 90832      311.97s   6.847% 841.237 ||
|| density_fftbox_interpolate_multiply  : 19648      376.35s   8.260%  ------ ||
|| integrals_locpot_mat_els_batch       :   392      384.41s   8.437%  ------ ||
|| projectors_grad_precond_batch        :    64      407.23s   8.938%  ------ ||
|| density_batch_interp_deposit         :  1228      463.22s  10.167%  ------ ||
|| integrals_locpot_dbl_grid            :    98      538.21s  11.813%  ------ ||
|| edft_apply_smearing_operator         :   270      579.26s  12.714%  ------ ||
|| basis_add_function_to_box            : 28.11M     723.38s  15.877%  ------ ||
|| ngwf_gradient_build_batch            :    64      738.29s  16.204%  ------ ||
|| ngwf_gradient_batch                  :    64     1002.50s  22.004%  ------ ||
|| ngwf_gradient_lnv                    :    16     1039.61s  22.818%  ------ ||
|| density_batch_row_sums               :  1228     1076.90s  23.636%  ------ ||
|| density_on_dbl_grid                  :   307     1559.00s  34.218%  ------ ||
|| hamiltonian_lhxc_calculate           :   301     1678.42s  36.839%  ------ ||
|| edft_calculate                       :    16     2781.88s  61.058%  ------ ||
|| ngwf_cg_optimise                     :     1     4424.05s  97.102%  ------ ||
|| total_time                           :     1     4556.09s 100.000%  ------ ||
================================================================================
Overhead of generating timer report: 
- 0 ms averaging over threads,
- 6 ms ensuring consistency across MPI ranks,
- 0 ms printing in order.

Job completed: 25-02-2020 11:36 (-0000)

