 +---------------------------------------------------------------+
 |                                                               |
 |        ####### #     # ####### ####### ####### ######         |
 |        #     # ##    # #          #    #       #     #        |
 |        #     # # #   # #          #    #       #     #        |
 |        #     # #  #  # #####      #    #####   ######         |
 |        #     # #   # # #          #    #       #              |
 |        #     # #    ## #          #    #       #              |
 |        ####### #     # #######    #    ####### #              |
 |                                                               |
 |        Linear-Scaling Ab Initio Total Energy Program          |
 |                                                               |
 |          Release for academic collaborators of ODG            |
 |                                             Version 5.3.2.12  |
 |                                                               |
 +---------------------------------------------------------------+
 |                                                               |
 |  Authors:                                                     |
 |  Jacek Dziedzic, Peter D. Haynes, Nicholas D. M. Hine,        |
 |  Arash. A. Mostofi, Mike C. Payne and Chris-Kriton Skylaris   |
 |                                                               |
 |  Contributors:                                                |
 |  J. Aarons, L. Andrinopoulos, P. W. Avraam, R. A. Bell,       |
 |  A. Bhandari, G. A. Bramley, R. J. Charlton, S. J. Clark,     |
 |  R. J. Clements, G. C. Constantinescu, F. Corsetti,           |
 |  N. Corsini, O. Dieguez, S. M. M. Dubois, K. K. B. Duff,      |
 |  J. M. Escartin, A. Greco, H. Helal, Q. O. Hill, L. P. Lee,   |
 |  J.-H. Li, E. B. Linscott, G. Moynihan, D. D. O`Regan,        |
 |  O. K. Okan, M. J. S. Phipps, C. J. Pickard,                  |
 |  J. C. A. Prentice, M. I. J. Probert, L. E. Ratcliff,         |
 |  M. Robinson, A. Ruiz Serrano, J. S. Spencer, E. W. Tait,     |
 |  G. Teobaldi, D. Turban, V. Vitale, K. A. Wilkinson,          |
 |  C. Weber, J. C. Womack, N. Yeung and T. J. Zuehlsdorff       |
 |                                                               |
 |                                   Copyright (c) 2004-2020     |
 |                                                               |
 |  Please cite:                                                 |
 |  "Introducing ONETEP: Linear-scaling density functional       |
 |   simulations on parallel computers".                         |
 |   C.-K. Skylaris, P. D. Haynes, A. A. Mostofi, M. C. Payne.   |
 |   J. Chem. Phys. 122 084119 (2005).                           |
 |                                                               |
 |          in all publications arising from your use of ONETEP. |
 |                                                               |
 +---------------------------------------------------------------+
 |                                                               |
 |   ONETEP is based on developments described in the following  |
 |   publications:                                               |
 |                                                               |
 |  "Nonorthogonal generalized Wannier function pseudopotential  |
 |   plane-wave method".                                         |
 |   C.-K. Skylaris, A. A. Mostofi, P. D. Haynes, O. Dieguez,    |
 |   M. C. Payne.                                                |
 |   Phys. Rev. B 66 035119 (2002).                              |
 |                                                               |
 |  "Preconditioned iterative minimization for linear-scaling    |
 |   electronic structure calculations".                         |
 |   A. A. Mostofi, P. D. Haynes, C.-K. Skylaris, M. C. Payne.   |
 |   J. Chem. Phys. 119(17), pp.8842-8848 (2003).                |
 |                                                               |
 |  "Total-energy calculations on a real space grid with         |
 |   localized functions and a plane-wave basis".                |
 |   A. A. Mostofi, C.-K. Skylaris, P. D. Haynes, M. C. Payne.   |
 |   Comput. Phys. Commun. 147, pp.788-802 (2002).               |
 |                                                               |
 |  "Accurate kinetic energy evaluation in electronic structure  |
 |   calculations with localized functions on real space grids"  |
 |   C.-K. Skylaris, A. A. Mostofi, P. D. Haynes, C. J. Pickard, |
 |   M. C. Payne.                                                |
 |   Comput. Phys. Commun. 140, pp.315-322 (2001).               |
 |                                                               |
 |  "Accurate ionic forces and geometry optimization in linear-  |
 |   scaling density-functional theory with local orbitals"      |
 |   N. D. M. Hine, M. Robinson, P. D. Haynes, C.-K. Skylaris,   |
 |   M. C. Payne, and A. A. Mostofi.                             |
 |   Phys. Rev. B 83 195102 (2011).                              |
 |                                                               |
 +---------------------------------------------------------------+

Job started: 25-02-2020 14:01 (-0000)
 
Reading parameters from file "3.3271687999999995_GO_manual_4x64graphite.dat" ...

WARNING: "cutoff_energy" not specified, but "psinc_spacing" specified.
         Using the latter to set the KE cutoff energy to  732.32021eV,
         thus *overriding* the default.

... done

If your calculation crashes here, before "Checking processes and threads..."
is displayed, then your stack size is insufficient.
If so, use "ulimit -s unlimited" at runtime.
You can disable this check with "check_stack_size F".

Checking processes and threads...
   Determining the default number of threads...
      No default threads set at compilation time: defaulting to 1.
      OpenMP library call suggests 4 threads.
      Hybrid MPI-OpenMP compilation detected.
      Number of MPI processes > 1.
      OMP_NUM_THREADS environment variable present and
      its value matches the one obtained from the OpenMP library call.
      Using this value as default.
      Default threads: 4
      Default applies to threads_max and threads_num_fftboxes.
      Settings in the input file override this default.
   ... done

   Running with 40 MPI processes.
   There are 10 MPI processes running on the same node as the root process.
   Each MPI process is using: 
               1 threads for simulation cell FFTs.
               1 threads for parallel FFT box operations.
               4 threads for loops over batched FFT box operations.
               4 threads in other parallel regions.
... done

Basic input checks...
Resetting ngwf_cg_rotate to TRUE for EDFT calculations
... done

Reading geometry and species blocks from file "3.3271687999999995_GO_manual_4x64graphite.dat" ...
    
  PSINC grid spacing along a1 set to   0.511215680000a0 from input file.
  PSINC grid spacing along a2 set to   0.531284090000a0 from input file.
  PSINC grid spacing along a3 set to   0.507052480000a0 from input file.
  Number of PPD points along a3 set to 1.  This is 
  the default value, it may have been provided also in the input file.
... done
 Writing xyz coordinates to file "3.3271687999999995_GO_manual_4x64graphite.xyz" ... done


--------------------------------------------------------------------------------
---------------------------------- INPUT FILE ----------------------------------
--------------------------------------------------------------------------------

task : singlepoint                                                              
do_properties : true                                                            
dx_format T                                                                     
edft T                                                                          
output_detail VERBOSE                                                           
write_xyz T                                                                     
xc_functional OPTB88                                                            
PSINC_SPACING 0.51121568 0.53128409 0.50705248                                  
paw T                                                                           
pdos_max_l = 2                                                                  
dos_smear  0.1 eV                                                               
popn_calculate T                                                                
PDOS_PSEUDOATOMIC T                                                             
PDOS_REDUCE_SWS F                                                               
PDOS_CONSTRUCT_BASIS F                                                          
PDOS_LOWDIN T                                                                   
PDOS_ORTH_ATOM_BLOCKS F                                                         
PDOS_LCAO_OPTIMIZE F                                                            
pdos_optados_output T                                                           
homo_plot 0                                                                     
lumo_plot 0                                                                     
homo_dens_plot -1                                                               
lumo_dens_plot -1                                                               
%BLOCK SPECIES                                                                  
C C 6 4 9.0                                                                     
%ENDBLOCK SPECIES                                                               
%BLOCK SPECIES_POT                                                              
C "~/pp/paw/c_pbe_abinit.paw"                                                   
%ENDBLOCK SPECIES_POT                                                           
%BLOCK SPECIES_ATOMIC_SET                                                       
C "SOLVE conf=2s2 2p2"                                                          
%ENDBLOCK SPECIES_ATOMIC_SET                                                    
%BLOCK LATTICE_CART                                                             
32.21  0.00  0.00                                                               
0.00 18.59  0.00                                                                
0.00  0.00 62.87                                                                
%ENDBLOCK LATTICE_CART                                                          
%BLOCK POSITIONS_ABS                                                            
C  0.00  0.00  3.14                                                             
C  0.00  0.00 15.72                                                             
C  0.00  0.00 28.29                                                             
C  0.00  0.00 40.87                                                             
C  0.00  0.00 53.44                                                             
C  0.00  4.65  3.14                                                             
C  0.00  4.65 15.72                                                             
C  0.00  4.65 28.29                                                             
C  0.00  4.65 40.87                                                             
C  0.00  4.65 53.44                                                             
C  4.03  2.32  3.14                                                             
C  4.03  2.32 15.72                                                             
C  4.03  2.32 28.29                                                             
C  4.03  2.32 40.87                                                             
C  4.03  2.32 53.44                                                             
C  8.05  0.00  3.14                                                             
C  8.05  0.00 15.72                                                             
C  8.05  0.00 28.29                                                             
C  8.05  0.00 40.87                                                             
C  8.05  0.00 53.44                                                             
C  0.00  9.30  3.14                                                             
C  0.00  9.30 15.72                                                             
C  0.00  9.30 28.29                                                             
C  0.00  9.30 40.87                                                             
C  0.00  9.30 53.44                                                             
C  4.03  6.97  3.14                                                             
C  4.03  6.97 15.72                                                             
C  4.03  6.97 28.29                                                             
C  4.03  6.97 40.87                                                             
C  4.03  6.97 53.44                                                             
C  8.05  4.65  3.14                                                             
C  8.05  4.65 15.72                                                             
C  8.05  4.65 28.29                                                             
C  8.05  4.65 40.87                                                             
C  8.05  4.65 53.44                                                             
C 12.08  2.32  3.14                                                             
C 12.08  2.32 15.72                                                             
C 12.08  2.32 28.29                                                             
C 12.08  2.32 40.87                                                             
C 12.08  2.32 53.44                                                             
C 16.10  0.00  3.14                                                             
C 16.10  0.00 15.72                                                             
C 16.10  0.00 28.29                                                             
C 16.10  0.00 40.87                                                             
C 16.10  0.00 53.44                                                             
C  0.00 13.95  3.14                                                             
C  0.00 13.95 15.72                                                             
C  0.00 13.95 28.29                                                             
C  0.00 13.95 40.87                                                             
C  0.00 13.95 53.44                                                             
C  4.03 11.62  3.14                                                             
C  4.03 11.62 15.72                                                             
C  4.03 11.62 28.29                                                             
C  4.03 11.62 40.87                                                             
C  4.03 11.62 53.44                                                             
C  8.05  9.30  3.14                                                             
C  8.05  9.30 15.72                                                             
C  8.05  9.30 28.29                                                             
C  8.05  9.30 40.87                                                             
C  8.05  9.30 53.44                                                             
C 12.08  6.97  3.14                                                             
C 12.08  6.97 15.72                                                             
C 12.08  6.97 28.29                                                             
C 12.08  6.97 40.87                                                             
C 12.08  6.97 53.44                                                             
C 16.10  4.65  3.14                                                             
C 16.10  4.65 15.72                                                             
C 16.10  4.65 28.29                                                             
C 16.10  4.65 40.87                                                             
C 16.10  4.65 53.44                                                             
C 20.13  2.32  3.14                                                             
C 20.13  2.32 15.72                                                             
C 20.13  2.32 28.29                                                             
C 20.13  2.32 40.87                                                             
C 20.13  2.32 53.44                                                             
C 24.16  0.00  3.14                                                             
C 24.16  0.00 15.72                                                             
C 24.16  0.00 28.29                                                             
C 24.16  0.00 40.87                                                             
C 24.16  0.00 53.44                                                             
C  4.03 16.27  3.14                                                             
C  4.03 16.27 15.72                                                             
C  4.03 16.27 28.29                                                             
C  4.03 16.27 40.87                                                             
C  4.03 16.27 53.44                                                             
C  8.05 13.95  3.14                                                             
C  8.05 13.95 15.72                                                             
C  8.05 13.95 28.29                                                             
C  8.05 13.95 40.87                                                             
C  8.05 13.95 53.44                                                             
C 12.08 11.62  3.14                                                             
C 12.08 11.62 15.72                                                             
C 12.08 11.62 28.29                                                             
C 12.08 11.62 40.87                                                             
C 12.08 11.62 53.44                                                             
C 16.10  9.30  3.14                                                             
C 16.10  9.30 15.72                                                             
C 16.10  9.30 28.29                                                             
C 16.10  9.30 40.87                                                             
C 16.10  9.30 53.44                                                             
C 20.13  6.97  3.14                                                             
C 20.13  6.97 15.72                                                             
C 20.13  6.97 28.29                                                             
C 20.13  6.97 40.87                                                             
C 20.13  6.97 53.44                                                             
C 24.16  4.65  3.14                                                             
C 24.16  4.65 15.72                                                             
C 24.16  4.65 28.29                                                             
C 24.16  4.65 40.87                                                             
C 24.16  4.65 53.44                                                             
C 28.18  2.32  3.14                                                             
C 28.18  2.32 15.72                                                             
C 28.18  2.32 28.29                                                             
C 28.18  2.32 40.87                                                             
C 28.18  2.32 53.44                                                             
C 12.08 16.27  3.14                                                             
C 12.08 16.27 15.72                                                             
C 12.08 16.27 28.29                                                             
C 12.08 16.27 40.87                                                             
C 12.08 16.27 53.44                                                             
C 16.10 13.95  3.14                                                             
C 16.10 13.95 15.72                                                             
C 16.10 13.95 28.29                                                             
C 16.10 13.95 40.87                                                             
C 16.10 13.95 53.44                                                             
C 20.13 11.62  3.14                                                             
C 20.13 11.62 15.72                                                             
C 20.13 11.62 28.29                                                             
C 20.13 11.62 40.87                                                             
C 20.13 11.62 53.44                                                             
C 24.16  9.30  3.14                                                             
C 24.16  9.30 15.72                                                             
C 24.16  9.30 28.29                                                             
C 24.16  9.30 40.87                                                             
C 24.16  9.30 53.44                                                             
C 28.18  6.97  3.14                                                             
C 28.18  6.97 15.72                                                             
C 28.18  6.97 28.29                                                             
C 28.18  6.97 40.87                                                             
C 28.18  6.97 53.44                                                             
C 20.13 16.27  3.14                                                             
C 20.13 16.27 15.72                                                             
C 20.13 16.27 28.29                                                             
C 20.13 16.27 40.87                                                             
C 20.13 16.27 53.44                                                             
C 24.16 13.95  3.14                                                             
C 24.16 13.95 15.72                                                             
C 24.16 13.95 28.29                                                             
C 24.16 13.95 40.87                                                             
C 24.16 13.95 53.44                                                             
C 28.18 11.62  3.14                                                             
C 28.18 11.62 15.72                                                             
C 28.18 11.62 28.29                                                             
C 28.18 11.62 40.87                                                             
C 28.18 11.62 53.44                                                             
C 28.18 16.27  3.14                                                             
C 28.18 16.27 15.72                                                             
C 28.18 16.27 28.29                                                             
C 28.18 16.27 40.87                                                             
C 28.18 16.27 53.44                                                             
C  0.00  0.00  9.43                                                             
C  0.00  0.00 22.01                                                             
C  0.00  0.00 34.58                                                             
C  0.00  0.00 47.16                                                             
C  0.00  0.00 59.73                                                             
C  0.00  4.65  9.43                                                             
C  0.00  4.65 22.01                                                             
C  0.00  4.65 34.58                                                             
C  0.00  4.65 47.16                                                             
C  0.00  4.65 59.73                                                             
C  4.03  2.32  9.43                                                             
C  4.03  2.32 22.01                                                             
C  4.03  2.32 34.58                                                             
C  4.03  2.32 47.16                                                             
C  4.03  2.32 59.73                                                             
C  8.05  0.00  9.43                                                             
C  8.05  0.00 22.01                                                             
C  8.05  0.00 34.58                                                             
C  8.05  0.00 47.16                                                             
C  8.05  0.00 59.73                                                             
C  0.00  9.30  9.43                                                             
C  0.00  9.30 22.01                                                             
C  0.00  9.30 34.58                                                             
C  0.00  9.30 47.16                                                             
C  0.00  9.30 59.73                                                             
C  4.03  6.97  9.43                                                             
C  4.03  6.97 22.01                                                             
C  4.03  6.97 34.58                                                             
C  4.03  6.97 47.16                                                             
C  4.03  6.97 59.73                                                             
C  8.05  4.65  9.43                                                             
C  8.05  4.65 22.01                                                             
C  8.05  4.65 34.58                                                             
C  8.05  4.65 47.16                                                             
C  8.05  4.65 59.73                                                             
C 12.08  2.32  9.43                                                             
C 12.08  2.32 22.01                                                             
C 12.08  2.32 34.58                                                             
C 12.08  2.32 47.16                                                             
C 12.08  2.32 59.73                                                             
C 16.10  0.00  9.43                                                             
C 16.10  0.00 22.01                                                             
C 16.10  0.00 34.58                                                             
C 16.10  0.00 47.16                                                             
C 16.10  0.00 59.73                                                             
C  0.00 13.95  9.43                                                             
C  0.00 13.95 22.01                                                             
C  0.00 13.95 34.58                                                             
C  0.00 13.95 47.16                                                             
C  0.00 13.95 59.73                                                             
C  4.03 11.62  9.43                                                             
C  4.03 11.62 22.01                                                             
C  4.03 11.62 34.58                                                             
C  4.03 11.62 47.16                                                             
C  4.03 11.62 59.73                                                             
C  8.05  9.30  9.43                                                             
C  8.05  9.30 22.01                                                             
C  8.05  9.30 34.58                                                             
C  8.05  9.30 47.16                                                             
C  8.05  9.30 59.73                                                             
C 12.08  6.97  9.43                                                             
C 12.08  6.97 22.01                                                             
C 12.08  6.97 34.58                                                             
C 12.08  6.97 47.16                                                             
C 12.08  6.97 59.73                                                             
C 16.10  4.65  9.43                                                             
C 16.10  4.65 22.01                                                             
C 16.10  4.65 34.58                                                             
C 16.10  4.65 47.16                                                             
C 16.10  4.65 59.73                                                             
C 20.13  2.32  9.43                                                             
C 20.13  2.32 22.01                                                             
C 20.13  2.32 34.58                                                             
C 20.13  2.32 47.16                                                             
C 20.13  2.32 59.73                                                             
C 24.16  0.00  9.43                                                             
C 24.16  0.00 22.01                                                             
C 24.16  0.00 34.58                                                             
C 24.16  0.00 47.16                                                             
C 24.16  0.00 59.73                                                             
C  4.03 16.27  9.43                                                             
C  4.03 16.27 22.01                                                             
C  4.03 16.27 34.58                                                             
C  4.03 16.27 47.16                                                             
C  4.03 16.27 59.73                                                             
C  8.05 13.95  9.43                                                             
C  8.05 13.95 22.01                                                             
C  8.05 13.95 34.58                                                             
C  8.05 13.95 47.16                                                             
C  8.05 13.95 59.73                                                             
C 12.08 11.62  9.43                                                             
C 12.08 11.62 22.01                                                             
C 12.08 11.62 34.58                                                             
C 12.08 11.62 47.16                                                             
C 12.08 11.62 59.73                                                             
C 16.10  9.30  9.43                                                             
C 16.10  9.30 22.01                                                             
C 16.10  9.30 34.58                                                             
C 16.10  9.30 47.16                                                             
C 16.10  9.30 59.73                                                             
C 20.13  6.97  9.43                                                             
C 20.13  6.97 22.01                                                             
C 20.13  6.97 34.58                                                             
C 20.13  6.97 47.16                                                             
C 20.13  6.97 59.73                                                             
C 24.16  4.65  9.43                                                             
C 24.16  4.65 22.01                                                             
C 24.16  4.65 34.58                                                             
C 24.16  4.65 47.16                                                             
C 24.16  4.65 59.73                                                             
C 28.18  2.32  9.43                                                             
C 28.18  2.32 22.01                                                             
C 28.18  2.32 34.58                                                             
C 28.18  2.32 47.16                                                             
C 28.18  2.32 59.73                                                             
C 12.08 16.27  9.43                                                             
C 12.08 16.27 22.01                                                             
C 12.08 16.27 34.58                                                             
C 12.08 16.27 47.16                                                             
C 12.08 16.27 59.73                                                             
C 16.10 13.95  9.43                                                             
C 16.10 13.95 22.01                                                             
C 16.10 13.95 34.58                                                             
C 16.10 13.95 47.16                                                             
C 16.10 13.95 59.73                                                             
C 20.13 11.62  9.43                                                             
C 20.13 11.62 22.01                                                             
C 20.13 11.62 34.58                                                             
C 20.13 11.62 47.16                                                             
C 20.13 11.62 59.73                                                             
C 24.16  9.30  9.43                                                             
C 24.16  9.30 22.01                                                             
C 24.16  9.30 34.58                                                             
C 24.16  9.30 47.16                                                             
C 24.16  9.30 59.73                                                             
C 28.18  6.97  9.43                                                             
C 28.18  6.97 22.01                                                             
C 28.18  6.97 34.58                                                             
C 28.18  6.97 47.16                                                             
C 28.18  6.97 59.73                                                             
C 20.13 16.27  9.43                                                             
C 20.13 16.27 22.01                                                             
C 20.13 16.27 34.58                                                             
C 20.13 16.27 47.16                                                             
C 20.13 16.27 59.73                                                             
C 24.16 13.95  9.43                                                             
C 24.16 13.95 22.01                                                             
C 24.16 13.95 34.58                                                             
C 24.16 13.95 47.16                                                             
C 24.16 13.95 59.73                                                             
C 28.18 11.62  9.43                                                             
C 28.18 11.62 22.01                                                             
C 28.18 11.62 34.58                                                             
C 28.18 11.62 47.16                                                             
C 28.18 11.62 59.73                                                             
C 28.18 16.27  9.43                                                             
C 28.18 16.27 22.01                                                             
C 28.18 16.27 34.58                                                             
C 28.18 16.27 47.16                                                             
C 28.18 16.27 59.73                                                             
C  1.34  2.32  3.14                                                             
C  1.34  2.32 15.72                                                             
C  1.34  2.32 28.29                                                             
C  1.34  2.32 40.87                                                             
C  1.34  2.32 53.44                                                             
C  5.37  0.00  3.14                                                             
C  5.37  0.00 15.72                                                             
C  5.37  0.00 28.29                                                             
C  5.37  0.00 40.87                                                             
C  5.37  0.00 53.44                                                             
C  1.34  6.97  3.14                                                             
C  1.34  6.97 15.72                                                             
C  1.34  6.97 28.29                                                             
C  1.34  6.97 40.87                                                             
C  1.34  6.97 53.44                                                             
C  5.37  4.65  3.14                                                             
C  5.37  4.65 15.72                                                             
C  5.37  4.65 28.29                                                             
C  5.37  4.65 40.87                                                             
C  5.37  4.65 53.44                                                             
C  9.39  2.32  3.14                                                             
C  9.39  2.32 15.72                                                             
C  9.39  2.32 28.29                                                             
C  9.39  2.32 40.87                                                             
C  9.39  2.32 53.44                                                             
C 13.42  0.00  3.14                                                             
C 13.42  0.00 15.72                                                             
C 13.42  0.00 28.29                                                             
C 13.42  0.00 40.87                                                             
C 13.42  0.00 53.44                                                             
C  1.34 11.62  3.14                                                             
C  1.34 11.62 15.72                                                             
C  1.34 11.62 28.29                                                             
C  1.34 11.62 40.87                                                             
C  1.34 11.62 53.44                                                             
C  5.37  9.30  3.14                                                             
C  5.37  9.30 15.72                                                             
C  5.37  9.30 28.29                                                             
C  5.37  9.30 40.87                                                             
C  5.37  9.30 53.44                                                             
C  9.39  6.97  3.14                                                             
C  9.39  6.97 15.72                                                             
C  9.39  6.97 28.29                                                             
C  9.39  6.97 40.87                                                             
C  9.39  6.97 53.44                                                             
C 13.42  4.65  3.14                                                             
C 13.42  4.65 15.72                                                             
C 13.42  4.65 28.29                                                             
C 13.42  4.65 40.87                                                             
C 13.42  4.65 53.44                                                             
C 17.45  2.32  3.14                                                             
C 17.45  2.32 15.72                                                             
C 17.45  2.32 28.29                                                             
C 17.45  2.32 40.87                                                             
C 17.45  2.32 53.44                                                             
C 21.47  0.00  3.14                                                             
C 21.47  0.00 15.72                                                             
C 21.47  0.00 28.29                                                             
C 21.47  0.00 40.87                                                             
C 21.47  0.00 53.44                                                             
C  1.34 16.27  3.14                                                             
C  1.34 16.27 15.72                                                             
C  1.34 16.27 28.29                                                             
C  1.34 16.27 40.87                                                             
C  1.34 16.27 53.44                                                             
C  5.37 13.95  3.14                                                             
C  5.37 13.95 15.72                                                             
C  5.37 13.95 28.29                                                             
C  5.37 13.95 40.87                                                             
C  5.37 13.95 53.44                                                             
C  9.39 11.62  3.14                                                             
C  9.39 11.62 15.72                                                             
C  9.39 11.62 28.29                                                             
C  9.39 11.62 40.87                                                             
C  9.39 11.62 53.44                                                             
C 13.42  9.30  3.14                                                             
C 13.42  9.30 15.72                                                             
C 13.42  9.30 28.29                                                             
C 13.42  9.30 40.87                                                             
C 13.42  9.30 53.44                                                             
C 17.45  6.97  3.14                                                             
C 17.45  6.97 15.72                                                             
C 17.45  6.97 28.29                                                             
C 17.45  6.97 40.87                                                             
C 17.45  6.97 53.44                                                             
C 21.47  4.65  3.14                                                             
C 21.47  4.65 15.72                                                             
C 21.47  4.65 28.29                                                             
C 21.47  4.65 40.87                                                             
C 21.47  4.65 53.44                                                             
C 25.50  2.32  3.14                                                             
C 25.50  2.32 15.72                                                             
C 25.50  2.32 28.29                                                             
C 25.50  2.32 40.87                                                             
C 25.50  2.32 53.44                                                             
C 29.52  0.00  3.14                                                             
C 29.52  0.00 15.72                                                             
C 29.52  0.00 28.29                                                             
C 29.52  0.00 40.87                                                             
C 29.52  0.00 53.44                                                             
C  9.39 16.27  3.14                                                             
C  9.39 16.27 15.72                                                             
C  9.39 16.27 28.29                                                             
C  9.39 16.27 40.87                                                             
C  9.39 16.27 53.44                                                             
C 13.42 13.95  3.14                                                             
C 13.42 13.95 15.72                                                             
C 13.42 13.95 28.29                                                             
C 13.42 13.95 40.87                                                             
C 13.42 13.95 53.44                                                             
C 17.45 11.62  3.14                                                             
C 17.45 11.62 15.72                                                             
C 17.45 11.62 28.29                                                             
C 17.45 11.62 40.87                                                             
C 17.45 11.62 53.44                                                             
C 21.47  9.30  3.14                                                             
C 21.47  9.30 15.72                                                             
C 21.47  9.30 28.29                                                             
C 21.47  9.30 40.87                                                             
C 21.47  9.30 53.44                                                             
C 25.50  6.97  3.14                                                             
C 25.50  6.97 15.72                                                             
C 25.50  6.97 28.29                                                             
C 25.50  6.97 40.87                                                             
C 25.50  6.97 53.44                                                             
C 29.52  4.65  3.14                                                             
C 29.52  4.65 15.72                                                             
C 29.52  4.65 28.29                                                             
C 29.52  4.65 40.87                                                             
C 29.52  4.65 53.44                                                             
C 17.45 16.27  3.14                                                             
C 17.45 16.27 15.72                                                             
C 17.45 16.27 28.29                                                             
C 17.45 16.27 40.87                                                             
C 17.45 16.27 53.44                                                             
C 21.47 13.95  3.14                                                             
C 21.47 13.95 15.72                                                             
C 21.47 13.95 28.29                                                             
C 21.47 13.95 40.87                                                             
C 21.47 13.95 53.44                                                             
C 25.50 11.62  3.14                                                             
C 25.50 11.62 15.72                                                             
C 25.50 11.62 28.29                                                             
C 25.50 11.62 40.87                                                             
C 25.50 11.62 53.44                                                             
C 29.52  9.30  3.14                                                             
C 29.52  9.30 15.72                                                             
C 29.52  9.30 28.29                                                             
C 29.52  9.30 40.87                                                             
C 29.52  9.30 53.44                                                             
C 25.50 16.27  3.14                                                             
C 25.50 16.27 15.72                                                             
C 25.50 16.27 28.29                                                             
C 25.50 16.27 40.87                                                             
C 25.50 16.27 53.44                                                             
C 29.52 13.95  3.14                                                             
C 29.52 13.95 15.72                                                             
C 29.52 13.95 28.29                                                             
C 29.52 13.95 40.87                                                             
C 29.52 13.95 53.44                                                             
C  2.68  0.00  9.43                                                             
C  2.68  0.00 22.01                                                             
C  2.68  0.00 34.58                                                             
C  2.68  0.00 47.16                                                             
C  2.68  0.00 59.73                                                             
C  2.68  4.65  9.43                                                             
C  2.68  4.65 22.01                                                             
C  2.68  4.65 34.58                                                             
C  2.68  4.65 47.16                                                             
C  2.68  4.65 59.73                                                             
C  6.71  2.32  9.43                                                             
C  6.71  2.32 22.01                                                             
C  6.71  2.32 34.58                                                             
C  6.71  2.32 47.16                                                             
C  6.71  2.32 59.73                                                             
C 10.74  0.00  9.43                                                             
C 10.74  0.00 22.01                                                             
C 10.74  0.00 34.58                                                             
C 10.74  0.00 47.16                                                             
C 10.74  0.00 59.73                                                             
C  2.68  9.30  9.43                                                             
C  2.68  9.30 22.01                                                             
C  2.68  9.30 34.58                                                             
C  2.68  9.30 47.16                                                             
C  2.68  9.30 59.73                                                             
C  6.71  6.97  9.43                                                             
C  6.71  6.97 22.01                                                             
C  6.71  6.97 34.58                                                             
C  6.71  6.97 47.16                                                             
C  6.71  6.97 59.73                                                             
C 10.74  4.65  9.43                                                             
C 10.74  4.65 22.01                                                             
C 10.74  4.65 34.58                                                             
C 10.74  4.65 47.16                                                             
C 10.74  4.65 59.73                                                             
C 14.76  2.32  9.43                                                             
C 14.76  2.32 22.01                                                             
C 14.76  2.32 34.58                                                             
C 14.76  2.32 47.16                                                             
C 14.76  2.32 59.73                                                             
C 18.79  0.00  9.43                                                             
C 18.79  0.00 22.01                                                             
C 18.79  0.00 34.58                                                             
C 18.79  0.00 47.16                                                             
C 18.79  0.00 59.73                                                             
C  2.68 13.95  9.43                                                             
C  2.68 13.95 22.01                                                             
C  2.68 13.95 34.58                                                             
C  2.68 13.95 47.16                                                             
C  2.68 13.95 59.73                                                             
C  6.71 11.62  9.43                                                             
C  6.71 11.62 22.01                                                             
C  6.71 11.62 34.58                                                             
C  6.71 11.62 47.16                                                             
C  6.71 11.62 59.73                                                             
C 10.74  9.30  9.43                                                             
C 10.74  9.30 22.01                                                             
C 10.74  9.30 34.58                                                             
C 10.74  9.30 47.16                                                             
C 10.74  9.30 59.73                                                             
C 14.76  6.97  9.43                                                             
C 14.76  6.97 22.01                                                             
C 14.76  6.97 34.58                                                             
C 14.76  6.97 47.16                                                             
C 14.76  6.97 59.73                                                             
C 18.79  4.65  9.43                                                             
C 18.79  4.65 22.01                                                             
C 18.79  4.65 34.58                                                             
C 18.79  4.65 47.16                                                             
C 18.79  4.65 59.73                                                             
C 22.81  2.32  9.43                                                             
C 22.81  2.32 22.01                                                             
C 22.81  2.32 34.58                                                             
C 22.81  2.32 47.16                                                             
C 22.81  2.32 59.73                                                             
C 26.84  0.00  9.43                                                             
C 26.84  0.00 22.01                                                             
C 26.84  0.00 34.58                                                             
C 26.84  0.00 47.16                                                             
C 26.84  0.00 59.73                                                             
C  6.71 16.27  9.43                                                             
C  6.71 16.27 22.01                                                             
C  6.71 16.27 34.58                                                             
C  6.71 16.27 47.16                                                             
C  6.71 16.27 59.73                                                             
C 10.74 13.95  9.43                                                             
C 10.74 13.95 22.01                                                             
C 10.74 13.95 34.58                                                             
C 10.74 13.95 47.16                                                             
C 10.74 13.95 59.73                                                             
C 14.76 11.62  9.43                                                             
C 14.76 11.62 22.01                                                             
C 14.76 11.62 34.58                                                             
C 14.76 11.62 47.16                                                             
C 14.76 11.62 59.73                                                             
C 18.79  9.30  9.43                                                             
C 18.79  9.30 22.01                                                             
C 18.79  9.30 34.58                                                             
C 18.79  9.30 47.16                                                             
C 18.79  9.30 59.73                                                             
C 22.81  6.97  9.43                                                             
C 22.81  6.97 22.01                                                             
C 22.81  6.97 34.58                                                             
C 22.81  6.97 47.16                                                             
C 22.81  6.97 59.73                                                             
C 26.84  4.65  9.43                                                             
C 26.84  4.65 22.01                                                             
C 26.84  4.65 34.58                                                             
C 26.84  4.65 47.16                                                             
C 26.84  4.65 59.73                                                             
C 30.86  2.32  9.43                                                             
C 30.86  2.32 22.01                                                             
C 30.86  2.32 34.58                                                             
C 30.86  2.32 47.16                                                             
C 30.86  2.32 59.73                                                             
C 14.76 16.27  9.43                                                             
C 14.76 16.27 22.01                                                             
C 14.76 16.27 34.58                                                             
C 14.76 16.27 47.16                                                             
C 14.76 16.27 59.73                                                             
C 18.79 13.95  9.43                                                             
C 18.79 13.95 22.01                                                             
C 18.79 13.95 34.58                                                             
C 18.79 13.95 47.16                                                             
C 18.79 13.95 59.73                                                             
C 22.81 11.62  9.43                                                             
C 22.81 11.62 22.01                                                             
C 22.81 11.62 34.58                                                             
C 22.81 11.62 47.16                                                             
C 22.81 11.62 59.73                                                             
C 26.84  9.30  9.43                                                             
C 26.84  9.30 22.01                                                             
C 26.84  9.30 34.58                                                             
C 26.84  9.30 47.16                                                             
C 26.84  9.30 59.73                                                             
C 30.86  6.97  9.43                                                             
C 30.86  6.97 22.01                                                             
C 30.86  6.97 34.58                                                             
C 30.86  6.97 47.16                                                             
C 30.86  6.97 59.73                                                             
C 22.81 16.27  9.43                                                             
C 22.81 16.27 22.01                                                             
C 22.81 16.27 34.58                                                             
C 22.81 16.27 47.16                                                             
C 22.81 16.27 59.73                                                             
C 26.84 13.95  9.43                                                             
C 26.84 13.95 22.01                                                             
C 26.84 13.95 34.58                                                             
C 26.84 13.95 47.16                                                             
C 26.84 13.95 59.73                                                             
C 30.86 11.62  9.43                                                             
C 30.86 11.62 22.01                                                             
C 30.86 11.62 34.58                                                             
C 30.86 11.62 47.16                                                             
C 30.86 11.62 59.73                                                             
C 30.86 16.27  9.43                                                             
C 30.86 16.27 22.01                                                             
C 30.86 16.27 34.58                                                             
C 30.86 16.27 47.16                                                             
C 30.86 16.27 59.73                                                             
%ENDBLOCK POSITIONS_ABS                                                         

--------------------------------------------------------------------------------
-------------------------------- END INPUT FILE --------------------------------
--------------------------------------------------------------------------------


 
<<<<<<<<<<<<<<<<<<<<<<<<<<<<<<<<< Full system >>>>>>>>>>>>>>>>>>>>>>>>>>>>>>>>>>
<<<<<<<<<<<<<<<<<<<<<<<<<<< PAW Dataset information >>>>>>>>>>>>>>>>>>>>>>>>>>>
File: ~/pp/paw/c_pbe_abinit.paw; rc = 1.25 bohr; shape type =  3; rshape = 1.25 bohr;
  Atomic number:  6;  ionic charge:  4.000000
    Partial Wave 1: l = 0
    Partial Wave 2: l = 0
    Partial Wave 3: l = 1
    Partial Wave 4: l = 1
  Core charge supplied for Nonlinear Core Corrections
<<<<<<<<<<<<<<<<<<<<<<<<<<<<<<<<<<<<<<< >>>>>>>>>>>>>>>>>>>>>>>>>>>>>>>>>>>>>>>

-------------------------- Atom counting information ---------------------------
Symbol    Natoms    Nngwfs    Nprojs
  C        640      2560      5120
.......   ......    ......    ......
Totals:    640      2560      5120
--------------------------------------------------------------------------------

=============================== PSINC grid sizes ===============================
                      Simulation cell:   63 x  35 x 124
                              FFT-box:   63 x  35 x 117
                                  PPD:    7 x   5 x   1
Grid space d1=  0.511269841270a0 (KE cutoff=  29.06054Eh = 790.77748eV)
Grid space d2=  0.531142857143a0 (KE cutoff=  26.92659Eh = 732.70972eV)
Grid space d3=  0.507016129032a0 (KE cutoff=  29.55020Eh = 804.10191eV)
================================================================================
  
WARNING in cell_grid_distribute:
Average of less than one 23-slab per node, so workload cannot be
equally balanced between nodes.

********************* Fourier parallelisation information **********************
       Coarse grid (whole simulation cell) dimensions:     63    35   124
          Real-space ('12') slabs/node (min max mean):      3     4     3
         Recip-space ('23') slabs/node (min max mean):      0     1     0
********************************************************************************

********************* Fourier parallelisation information **********************
       Double grid (whole simulation cell) dimensions:    126    70   248
          Real-space ('12') slabs/node (min max mean):      6     7     6
         Recip-space ('23') slabs/node (min max mean):      1     2     1
********************************************************************************

Atom SCF Calculation for C  : Z (AE atom) =   6 : Z (PS atom) =   4
Config String: 2s2 2p2
Orbitals (num,occ):  2     2.00 2.00
Orbitals   (num,l):  2        0    1
Real-space Grid (nr,dr,rmax): 1293    0.0069659443    9.0000000000
Spherical Bessel Basis (nsws,lmax,cutoff):   37    2  161.4736382572
Confining potential (l,width,scale):  0    3.0000000000  100.0000000000
Confining potential (l,width,scale):  1    3.0000000000  100.0000000000
  1         -5.4468762137   -1.3311033486    4.5135257941   -1.6400141247
  2         -5.4563922850   -1.3925089082    4.4492606193   -1.6178955363
  3         -5.4591606672   -1.4162756486    4.4239316220   -1.6104942496
  4         -5.4639338613   -1.4240698331    4.4156521757   -1.6083566999
  5         -5.4657436445   -1.4272842389    4.4122438165   -1.6075116305
  6         -5.4665049591   -1.4285796230    4.4108740217   -1.6071800157
  7         -5.4668137280   -1.4291083664    4.4103163978   -1.6070462938
  8         -5.4669397753   -1.4293243321    4.4100892688   -1.6069921003
  9         -5.4669910134   -1.4294128082    4.4099964732   -1.6069700140
 10         -5.4670118707   -1.4294491026    4.4099585094   -1.6069609935
 11         -5.4670203648   -1.4294640137    4.4099429536   -1.6069573023
 12         -5.4670238269   -1.4294701480    4.4099365706   -1.6069557895
 13         -5.4670252393   -1.4294726750    4.4099339478   -1.6069551687
 14         -5.4670258160   -1.4294737172    4.4099328686   -1.6069549136
 15         -5.4670260518   -1.4294741476    4.4099324241   -1.6069548086
 16         -5.4670261483   -1.4294743256    4.4099322407   -1.6069547654
Atom SCF converged after  16 iterations to a total energy of     -5.46702615

Determining parallel strategy ...
... using space-filling curve
... NGWF load balancing: max     64;  min     64;  average     64
... Projector load balancing: max    128;  min    128;  average    128
... done
Calculating Ewald energy ...
              Ewald: real-space energy =    9505.276468
        Ewald: reciprocal-space energy =       0.077735
         Ewald: (sum_charge)**2 Energy =   11345.372302
         Ewald: (sum_charge**2) Energy =     896.930434
                          Ewald Energy =   -2736.948535
Basis initialisation ...... NGWF spheres initialised
... Projector spheres initialised
... NGWF tight boxes initialised
... Projector tight boxes initialised
... Tight-boxes gathered
... NGWF basis size (local,global):     695092  27900064
... PAW projector initialisation
... done

============================= Charge Augmentation ==============================
                           Aug box size:   11 x  11 x  11
================================================================================

========================== Sparse matrix information ===========================
                        Overlap matrix filling:  44.38%
                        Density kernel filling: 100.00%
              NGWF-Proj overlap matrix filling:  13.12%
                    Aug Overlap matrix filling:  47.81%
                    Hamiltonian matrix filling:  47.81%
                  NGWF diagonal matrix filling:   0.16%
                             KS matrix filling: 100.00% 
                           KSKS matrix filling: 100.00% 
================================================================================

Sparse matrix initialisation ... done
NGWF initialisation ...... done
============ Calculation of NGWF S^-1 using Hotelling algorithm ================ 
         Iteration  |  Frobenius norm and Maximum abs value    (of I-S*S_n^-1)   
               1       0.49144113E+02     0.97708668E+00
               2       0.47970840E+02     0.95597299E+00
               3       0.46188855E+02     0.91819777E+00
               4       0.43847351E+02     0.85579853E+00
               5       0.41024359E+02     0.76273147E+00
               6       0.37714730E+02     0.68356473E+00
               7       0.34219647E+02     0.63469269E+00
               8       0.30887488E+02     0.59422781E+00
               9       0.27395094E+02     0.55194462E+00
              10       0.23029482E+02     0.48691734E+00
              11       0.17320579E+02     0.38240630E+00
              12       0.10604273E+02     0.24073712E+00
              13       0.45218787E+01     0.10115441E+00
              14       0.98067923E+00     0.20304336E-01
              15       0.54705356E-01     0.99647159E-03
              16       0.21246660E-03     0.30374010E-05
              17       0.47643323E-08     0.42573278E-10
              18       0.79959257E-13     0.37747583E-14
================================================================================
Calculating core density ...
================================= Core Density =================================
               Core den box size:   21 x  21 x  21
================================================================================
 ... done
Up spin density kernel initialisation ...... done

Writing density kernel to file "3.3271687999999995_GO_manual_4x64graphite.dkn" ... done

>>> Optimising kernel for current NGWFs:

--------------------------- Ensemble-DFT optimisation --------------------------
Running ScaLAPACK on   40 processor(s).

--------------------------------------------------------------------------------
  Iter                              Commutator    Free_energy(A=E-TS)     DeltaA
#    0                          0.000041249941   -3652.84009963229755  -3.65E+03

Step                       =       0.381966011250
Energy                     =   -3652.840063886050
Entropy (-TS)              =      -0.000035745969
Free energy (A=E-TS)       =   -3652.840099632298
Est. 0K Energy 0.5*(E+A)   =   -3652.840081759174
Residual Non-orthogonality =       0.000000000000
Residual N_electrons       =      -0.000000000276

Spin          Integrated_Ne            Fermi_level     Delta_Fermi_level
   1      2560.000000001290         0.214102432925              2.14E-01

                           Spin 1          
     Orb      H-eigenvalues     Occupancies
       1 |    -0.5078914048    1.0000000000 | 
                          ------
    1276 |     0.1807153926    0.9999736178 | 
    1277 |     0.1813065455    0.9999682035 | 
    1278 |     0.1813328775    0.9999679380 | 
    1279 |     0.1818000826    0.9999628413 | 
    1280 |     0.1824100285    0.9999549490 | 
                 - Gap at zero temperature -
    1281 |     0.2483745562    0.0000199496 | 
    1282 |     0.2483814402    0.0000199063 | 
    1283 |     0.2484669146    0.0000193762 | 
    1284 |     0.2486016842    0.0000185689 | 
    1285 |     0.2486086230    0.0000185283 | 
                          ------
    2560 |     1.0441904341    0.0000000000 | 

                       |  Abs_value |  Threshold | Converged
     Delta_Free_energy |   3.65E+03 |   1.00E-06 |        No
     Delta_Energy      |   3.65E+03 |   1.00E-04 |        No
     Delta_Entropy     |   3.57E-05 |   1.00E-04 |       Yes
     Commutator        |   4.12E-05 |   1.00E-05 |        No
     Delta_Fermi_level |   2.14E-01 |   1.00E-03 |        No

  Line search of the free energy minimum:
  Step_type        Step             Free_energy   Predicted_free_energy
.   Initial    0.000000    -3652.84009963229755
.    Trial1    0.381966    -3652.84184549820338
.    Trial2    0.618034    -3652.84186218592185
. Quadratic    0.504854    -3652.84195499302177    -3652.84195545586090

--------------------------------------------------------------------------------
  Iter                              Commutator    Free_energy(A=E-TS)     DeltaA
#    1                          0.000021920464   -3652.84195499302177  -1.86E-03

Step                       =       0.504854285315
Energy                     =   -3652.841919882414
Entropy (-TS)              =      -0.000035110552
Free energy (A=E-TS)       =   -3652.841954993022
Est. 0K Energy 0.5*(E+A)   =   -3652.841937437718
Residual Non-orthogonality =       0.000000000000
Residual N_electrons       =      -0.000000000056

Spin          Integrated_Ne            Fermi_level     Delta_Fermi_level
   1      2560.000000000259         0.215446851271              1.34E-03

                           Spin 1          
     Orb      H-eigenvalues     Occupancies
       1 |    -0.5078183929    1.0000000000 | 
                          ------
    1276 |     0.1820639023    0.9999735837 | 
    1277 |     0.1825423744    0.9999692753 | 
    1278 |     0.1825470297    0.9999692301 | 
    1279 |     0.1831767889    0.9999624605 | 
    1280 |     0.1836525721    0.9999563751 | 
                 - Gap at zero temperature -
    1281 |     0.2497461647    0.0000197791 | 
    1282 |     0.2497679341    0.0000196436 | 
    1283 |     0.2498616189    0.0000190710 | 
    1284 |     0.2500051491    0.0000182259 | 
    1285 |     0.2500118836    0.0000181872 | 
                          ------
    2560 |     1.0461278209    0.0000000000 | 

                       |  Abs_value |  Threshold | Converged
     Delta_Free_energy |   1.86E-03 |   1.00E-06 |        No
     Delta_Energy      |   1.86E-03 |   1.00E-04 |        No
     Delta_Entropy     |   6.35E-07 |   1.00E-04 |       Yes
     Commutator        |   2.19E-05 |   1.00E-05 |        No
     Delta_Fermi_level |   1.34E-03 |   1.00E-03 |        No

  Line search of the free energy minimum:
  Step_type        Step             Free_energy   Predicted_free_energy
.   Initial    0.000000    -3652.84195499302177
.    Trial1    0.504854    -3652.84211095839646
.    Trial2    0.693983    -3652.84148624434602
. Quadratic    0.282105    -3652.84237001634710    -3652.84236920710191

--------------------------------------------------------------------------------
  Iter                              Commutator    Free_energy(A=E-TS)     DeltaA
#    2                          0.000013601584   -3652.84237001634710  -4.15E-04

Step                       =       0.282104681266
Energy                     =   -3652.842335160623
Entropy (-TS)              =      -0.000034855731
Free energy (A=E-TS)       =   -3652.842370016347
Est. 0K Energy 0.5*(E+A)   =   -3652.842352588485
Residual Non-orthogonality =       0.000000000000
Residual N_electrons       =       0.000000000007

Spin          Integrated_Ne            Fermi_level     Delta_Fermi_level
   1      2559.999999999967         0.215791979662              3.45E-04

                           Spin 1          
     Orb      H-eigenvalues     Occupancies
       1 |    -0.5078050730    1.0000000000 | 
                          ------
    1276 |     0.1823624824    0.9999739691 | 
    1277 |     0.1828805822    0.9999693424 | 
    1278 |     0.1828863744    0.9999692862 | 
    1279 |     0.1834710109    0.9999630591 | 
    1280 |     0.1839874169    0.9999565166 | 
                 - Gap at zero temperature -
    1281 |     0.2501239284    0.0000195763 | 
    1282 |     0.2501470354    0.0000194340 | 
    1283 |     0.2502373995    0.0000188873 | 
    1284 |     0.2503930713    0.0000179813 | 
    1285 |     0.2504005878    0.0000179387 | 
                          ------
    2560 |     1.0466456113    0.0000000000 | 

                       |  Abs_value |  Threshold | Converged
     Delta_Free_energy |   4.15E-04 |   1.00E-06 |        No
     Delta_Energy      |   4.15E-04 |   1.00E-04 |        No
     Delta_Entropy     |   2.55E-07 |   1.00E-04 |       Yes
     Commutator        |   1.36E-05 |   1.00E-05 |        No
     Delta_Fermi_level |   3.45E-04 |   1.00E-03 |       Yes

  Line search of the free energy minimum:
  Step_type        Step             Free_energy   Predicted_free_energy
.   Initial    0.000000    -3652.84237001634710
.    Trial1    0.282105    -3652.84252134030658
.    Trial2    0.556316    -3652.84241862092767
. Quadratic    0.304834    -3652.84252217477660    -3652.84252218634083

--------------------------------------------------------------------------------
  Iter                              Commutator    Free_energy(A=E-TS)     DeltaA
#    3                          0.000009542043   -3652.84252217477660  -1.52E-04

Step                       =       0.304834363767
Energy                     =   -3652.842487503135
Entropy (-TS)              =      -0.000034671836
Free energy (A=E-TS)       =   -3652.842522174777
Est. 0K Energy 0.5*(E+A)   =   -3652.842504838956
Residual Non-orthogonality =       0.000000000000
Residual N_electrons       =       0.000000000194

Spin          Integrated_Ne            Fermi_level     Delta_Fermi_level
   1      2559.999999999101         0.216062840598              2.71E-04

                           Spin 1          
     Orb      H-eigenvalues     Occupancies
       1 |    -0.5077881331    1.0000000000 | 
                          ------
    1276 |     0.1826108655    0.9999741532 | 
    1277 |     0.1831372285    0.9999694797 | 
    1278 |     0.1831434742    0.9999694194 | 
    1279 |     0.1837185028    0.9999633307 | 
    1280 |     0.1842436023    0.9999567176 | 
                 - Gap at zero temperature -
    1281 |     0.2504136372    0.0000194601 | 
    1282 |     0.2504371681    0.0000193161 | 
    1283 |     0.2505269856    0.0000187759 | 
    1284 |     0.2506846909    0.0000178638 | 
    1285 |     0.2506926941    0.0000178187 | 
                          ------
    2560 |     1.0470611536    0.0000000000 | 

                       |  Abs_value |  Threshold | Converged
     Delta_Free_energy |   1.52E-04 |   1.00E-06 |        No
     Delta_Energy      |   1.52E-04 |   1.00E-04 |        No
     Delta_Entropy     |   1.84E-07 |   1.00E-04 |       Yes
     Commutator        |   9.54E-06 |   1.00E-05 |       Yes
     Delta_Fermi_level |   2.71E-04 |   1.00E-03 |       Yes

  Line search of the free energy minimum:
  Step_type        Step             Free_energy   Predicted_free_energy
.   Initial    0.000000    -3652.84252217477660
.    Trial1    0.304834    -3652.84259278546824
.    Trial2    0.570364    -3652.84250989593102
. Quadratic    0.273892    -3652.84259370480731    -3652.84259369829942

--------------------------------------------------------------------------------
  Iter                              Commutator    Free_energy(A=E-TS)     DeltaA
#    4                          0.000006736059   -3652.84259370480731  -7.15E-05

Step                       =       0.273892213468
Energy                     =   -3652.842559142627
Entropy (-TS)              =      -0.000034561666
Free energy (A=E-TS)       =   -3652.842593704807
Est. 0K Energy 0.5*(E+A)   =   -3652.842576423717
Residual Non-orthogonality =       0.000000000000
Residual N_electrons       =      -0.000000000515

Spin          Integrated_Ne            Fermi_level     Delta_Fermi_level
   1      2560.000000002383         0.216231957717              1.69E-04

                           Spin 1          
[...]
 C   158 -- C   383       -0.09      5.37000
 C   157 -- C   382       -0.09      5.37000
 C   156 -- C   381       -0.09      5.37000
 C   155 -- C   355       -0.09      5.37000
 C   154 -- C   354       -0.09      5.37000
 C   153 -- C   353       -0.09      5.37000
 C   152 -- C   352       -0.09      5.37000
 C   151 -- C   351       -0.09      5.37000
 C   140 -- C   335       -0.09      5.37000
 C   139 -- C   334       -0.09      5.37000
 C   138 -- C   333       -0.09      5.37000
 C   137 -- C   332       -0.09      5.37000
 C   136 -- C   331       -0.09      5.37000
 C   115 -- C   325       -0.09      5.37000
 C   114 -- C   324       -0.09      5.37000
 C   113 -- C   323       -0.09      5.37000
 C   112 -- C   322       -0.09      5.37000
 C   111 -- C   321       -0.09      5.37000
 C   219 -- C   569       -0.09      5.37202
 C   218 -- C   568       -0.09      5.37202
 C   217 -- C   567       -0.09      5.37202
 C   216 -- C   566       -0.09      5.37202
 C   250 -- C   540       -0.09      5.37202
 C   249 -- C   539       -0.09      5.37202
 C   248 -- C   538       -0.09      5.37202
 C   247 -- C   537       -0.09      5.37202
 C   246 -- C   536       -0.09      5.37202
 C   220 -- C   570       -0.09      5.37202
 C   285 -- C   580       -0.09      5.37202
 C   284 -- C   579       -0.09      5.37202
 C   283 -- C   578       -0.09      5.37202
 C   282 -- C   577       -0.09      5.37202
 C   281 -- C   576       -0.09      5.37202
 C   260 -- C   605       -0.09      5.37202
 C   259 -- C   604       -0.09      5.37202
 C   258 -- C   603       -0.09      5.37202
 C   257 -- C   602       -0.09      5.37202
 C   256 -- C   601       -0.09      5.37202
 C   220 -- C   515       -0.09      5.37202
 C   219 -- C   514       -0.09      5.37202
 C   218 -- C   513       -0.09      5.37202
 C   217 -- C   512       -0.09      5.37202
 C   216 -- C   511       -0.09      5.37202
 C   195 -- C   540       -0.09      5.37202
 C   195 -- C   500       -0.09      5.37202
 C   194 -- C   539       -0.09      5.37202
 C   194 -- C   499       -0.09      5.37202
 C   193 -- C   538       -0.09      5.37202
 C   193 -- C   498       -0.09      5.37202
 C   192 -- C   537       -0.09      5.37202
 C   192 -- C   497       -0.09      5.37202
 C   191 -- C   536       -0.09      5.37202
 C   191 -- C   496       -0.09      5.37202
 C   180 -- C   515       -0.09      5.37202
 C   179 -- C   514       -0.09      5.37202
 C   178 -- C   513       -0.09      5.37202
 C   177 -- C   512       -0.09      5.37202
 C   176 -- C   511       -0.09      5.37202
 C    11 -- C   331       -0.09      5.37202
 C   205 -- C   550       -0.09      5.37202
 C   204 -- C   549       -0.09      5.37202
 C   203 -- C   548       -0.09      5.37202
 C   202 -- C   547       -0.09      5.37202
 C   201 -- C   546       -0.09      5.37202
 C    95 -- C   425       -0.09      5.37202
 C    95 -- C   365       -0.09      5.37202
 C    94 -- C   424       -0.09      5.37202
 C    94 -- C   364       -0.09      5.37202
 C    93 -- C   423       -0.09      5.37202
 C    93 -- C   363       -0.09      5.37202
 C    92 -- C   422       -0.09      5.37202
 C    92 -- C   362       -0.09      5.37202
 C    91 -- C   421       -0.09      5.37202
 C    91 -- C   361       -0.09      5.37202
 C    40 -- C   365       -0.09      5.37202
 C    39 -- C   364       -0.09      5.37202
 C    38 -- C   363       -0.09      5.37202
 C    37 -- C   362       -0.09      5.37202
 C    36 -- C   361       -0.09      5.37202
 C    15 -- C   335       -0.09      5.37202
 C    65 -- C   395       -0.09      5.37202
 C    65 -- C   345       -0.09      5.37202
 C    64 -- C   394       -0.09      5.37202
 C    64 -- C   344       -0.09      5.37202
 C    63 -- C   393       -0.09      5.37202
 C    30 -- C   355       -0.09      5.37202
 C    63 -- C   343       -0.09      5.37202
 C    62 -- C   392       -0.09      5.37202
 C    30 -- C   325       -0.09      5.37202
 C    14 -- C   334       -0.09      5.37202
 C    62 -- C   342       -0.09      5.37202
 C    61 -- C   391       -0.09      5.37202
 C    29 -- C   354       -0.09      5.37202
 C    61 -- C   341       -0.09      5.37202
 C    29 -- C   324       -0.09      5.37202
 C   260 -- C   550       -0.09      5.37202
 C   259 -- C   549       -0.09      5.37202
 C    28 -- C   353       -0.09      5.37202
 C   258 -- C   548       -0.09      5.37202
 C   257 -- C   547       -0.09      5.37202
 C   256 -- C   546       -0.09      5.37202
 C    28 -- C   323       -0.09      5.37202
 C    27 -- C   352       -0.09      5.37202
 C    13 -- C   333       -0.09      5.37202
 C    27 -- C   322       -0.09      5.37202
 C   120 -- C   395       -0.09      5.37202
 C    26 -- C   351       -0.09      5.37202
 C   119 -- C   394       -0.09      5.37202
 C   118 -- C   393       -0.09      5.37202
 C    55 -- C   335       -0.09      5.37202
 C   117 -- C   392       -0.09      5.37202
 C    26 -- C   321       -0.09      5.37202
 C   116 -- C   391       -0.09      5.37202
 C    54 -- C   334       -0.09      5.37202
 C    12 -- C   332       -0.09      5.37202
 C    53 -- C   333       -0.09      5.37202
 C   230 -- C   580       -0.09      5.37202
 C   230 -- C   525       -0.09      5.37202
 C   229 -- C   579       -0.09      5.37202
 C   229 -- C   524       -0.09      5.37202
 C   228 -- C   578       -0.09      5.37202
 C    52 -- C   332       -0.09      5.37202
 C   228 -- C   523       -0.09      5.37202
 C   227 -- C   577       -0.09      5.37202
 C   227 -- C   522       -0.09      5.37202
 C   226 -- C   576       -0.09      5.37202
 C   226 -- C   521       -0.09      5.37202
 C    51 -- C   331       -0.09      5.37202
 C    23 -- C   478       -0.09      5.37202
 C    49 -- C   469       -0.09      5.37202
 C    48 -- C   468       -0.09      5.37202
 C    47 -- C   467       -0.09      5.37202
 C    22 -- C   477       -0.09      5.37202
 C    46 -- C   466       -0.09      5.37202
 C    21 -- C   476       -0.09      5.37202
 C    85 -- C   355       -0.09      5.37202
 C    84 -- C   354       -0.09      5.37202
 C    83 -- C   353       -0.09      5.37202
 C    82 -- C   352       -0.09      5.37202
 C    81 -- C   351       -0.09      5.37202
 C    55 -- C   385       -0.09      5.37202
 C    54 -- C   384       -0.09      5.37202
 C    25 -- C   480       -0.09      5.37202
 C    53 -- C   383       -0.09      5.37202
 C    52 -- C   382       -0.09      5.37202
 C    51 -- C   381       -0.09      5.37202
 C    24 -- C   479       -0.09      5.37202
 C    50 -- C   470       -0.09      5.37202
 C    24 -- C   449       -0.09      5.37202
 C     6 -- C   416       -0.09      5.37202
 C    23 -- C   448       -0.09      5.37202
 C    22 -- C   447       -0.09      5.37202
 C    10 -- C   470       -0.09      5.37202
 C     5 -- C   450       -0.09      5.37202
 C    21 -- C   446       -0.09      5.37202
 C    10 -- C   420       -0.09      5.37202
 C     9 -- C   469       -0.09      5.37202
 C     9 -- C   419       -0.09      5.37202
 C     8 -- C   468       -0.09      5.37202
 C     4 -- C   449       -0.09      5.37202
 C   150 -- C   440       -0.09      5.37202
 C   149 -- C   439       -0.09      5.37202
 C   148 -- C   438       -0.09      5.37202
 C   147 -- C   437       -0.09      5.37202
 C     8 -- C   418       -0.09      5.37202
 C   146 -- C   436       -0.09      5.37202
 C     2 -- C   447       -0.09      5.37202
 C   135 -- C   460       -0.09      5.37202
 C     7 -- C   467       -0.09      5.37202
 C   134 -- C   459       -0.09      5.37202
 C   133 -- C   458       -0.09      5.37202
 C   132 -- C   457       -0.09      5.37202
 C   131 -- C   456       -0.09      5.37202
 C     7 -- C   417       -0.09      5.37202
 C     1 -- C   446       -0.09      5.37202
 C     6 -- C   466       -0.09      5.37202
 C    25 -- C   450       -0.09      5.37202
 C     3 -- C   448       -0.09      5.37202
 C   106 -- C   436       -0.09      5.37202
 C   106 -- C   376       -0.09      5.37202
 C    80 -- C   410       -0.09      5.37202
 C    79 -- C   409       -0.09      5.37202
 C    78 -- C   408       -0.09      5.37202
 C    77 -- C   407       -0.09      5.37202
 C    76 -- C   406       -0.09      5.37202
 C   135 -- C   410       -0.09      5.37202
 C   134 -- C   409       -0.09      5.37202
 C   133 -- C   408       -0.09      5.37202
 C   132 -- C   407       -0.09      5.37202
 C   131 -- C   406       -0.09      5.37202
 C   110 -- C   440       -0.09      5.37202
 C   110 -- C   380       -0.09      5.37202
 C   109 -- C   439       -0.09      5.37202
 C   109 -- C   379       -0.09      5.37202
 C   108 -- C   438       -0.09      5.37202
 C   108 -- C   378       -0.09      5.37202
 C   107 -- C   437       -0.09      5.37202
 C   107 -- C   377       -0.09      5.37202
 C   215 -- C   635       -0.09      5.38000
 C   214 -- C   634       -0.09      5.38000
 C   213 -- C   633       -0.09      5.38000
 C   212 -- C   632       -0.09      5.38000
 C   211 -- C   631       -0.09      5.38000
 C   190 -- C   620       -0.09      5.38000
 C   189 -- C   619       -0.09      5.38000
 C   188 -- C   618       -0.09      5.38000
 C   187 -- C   617       -0.09      5.38000
 C   186 -- C   616       -0.09      5.38000
 C   175 -- C   595       -0.09      5.38000
 C   174 -- C   594       -0.09      5.38000
 C   173 -- C   593       -0.09      5.38000
 C   172 -- C   592       -0.09      5.38000
 C   171 -- C   591       -0.09      5.38000
 C   245 -- C   640       -0.09      5.38000
 C   244 -- C   639       -0.09      5.38000
 C   243 -- C   638       -0.09      5.38000
 C   242 -- C   637       -0.09      5.38000
 C   241 -- C   636       -0.09      5.38000
==================================================


=================== Orbital energy and occupancy information ===================

      Total number of orbitals:    2560
        Occupancy sum (kernel):    1279.999999999
   Occupancy sum (eigenvalues):    1279.999999999
                 HOMO-LUMO gap:       0.062903615 Eh
                 Mid-gap level:       0.260402712 Eh

                        Orbital | Energy (Eh) | Occupancy
                            1    -0.463922419   1.0000000
                        .......   ...........   .........
                         1271     0.223368183   0.9999883
                         1272     0.223376112   0.9999883
                         1273     0.223838334   0.9999864
                         1274     0.223846282   0.9999864
                         1275     0.227618301   0.9999552
                         1276     0.227636893   0.9999549
                         1277     0.228070151   0.9999483
                         1278     0.228088521   0.9999480
                         1279     0.228512182   0.9999406
                         1280     0.228950904   0.9999318
                        ....... -- gap at 0K -- .........
                         1281     0.291854520   0.0000345
                         1282     0.291862874   0.0000345
                         1283     0.292106372   0.0000319
                         1284     0.292115000   0.0000318
                         1285     0.292739620   0.0000262
                         1286     0.292749118   0.0000261
                         1287     0.293007657   0.0000241
                         1288     0.293017027   0.0000240
                         1289     0.293365154   0.0000215
                         1290     0.293498426   0.0000205
                        .......   ...........   .........
                         2560     1.147302556   0.0000000

================================================================================

===================== Writing canonical molecular orbitals =====================
| Orbital  Energy (eV)  Norm     |
| HOMO      6.23007112  1.000000 | Writing "3.3271687999999995_GO_manual_4x64graphite_HOMO.cube" ... done
Writing "3.3271687999999995_GO_manual_4x64graphite_HOMO.dx" ... done
| LUMO      7.94176559  1.000000 | Writing "3.3271687999999995_GO_manual_4x64graphite_LUMO.cube" ... done
Writing "3.3271687999999995_GO_manual_4x64graphite_LUMO.dx" ... done
================================================================================
 
===================== Density of States (DOS) calculation ======================
Writing "3.3271687999999995_GO_manual_4x64graphite_DOS.txt" ...  done
================================================================================
 
Writing bands to file "3.3271687999999995_GO_manual_4x64graphite.val_bands" ... done
 
================ Projected Density of States (pDOS) calculation ================
 
Constructing AM resolved functions  ...... done
Writing NGWF plot files in formats: CUBE DX ...  done
 
Performing overlap integrals ...  done
 
Computing pDOS weights ...  done
 
All bands spilling parameter =   3.81 %
Occupancy-weighted spilling parameter =   0.85 %
 
 => Outputting data for OptaDOS <=
 
Writing pDOS weights to file "3.3271687999999995_GO_manual_4x64graphite.val_pdos_bin" ... done
 
Writing band gradients to file "3.3271687999999995_GO_manual_4x64graphite.val_dome_bin" ... done
 
Writing Castep output cell file to "3.3271687999999995_GO_manual_4x64graphite-out.cell" ... done
 
 => Computing Gaussian smeared pDOS <= 
Writing "3.3271687999999995_GO_manual_4x64graphite_PDOS.txt" ...  done
 
 => Computing Occupancy-weighted Gaussian smeared pDOS <= 
Writing "3.3271687999999995_GO_manual_4x64graphite_occ_PDOS.txt" ...  done
  => Band centres: 
 S band centre of group 1:  -13.847629 eV
 P band centre of group 1:   -6.742525 eV
  Band centres done. <=
  => Integrated number of electrons in each AM band: 
 S num electrons of group 1:  574.338167
 P num electrons of group 1: 1963.912492
  Integrated number of electrons done. <=
================================================================================

------------------------------ TIMING INFORMATION ------------------------------
AVERAGE TIME:    4094.009s on     40 node(s)                                    
TOTAL TIME:      4094.009s on     40 node(s)                                    
================= AVERAGE TIMINGS FROM ALL NODES (CUMULATIVE) ==================
|| TAG                                    #calls    cpu time   %total  Gflops ||
|| work_imbalance                       :     1        0.00s   0.000%  ------ ||
|| paw_tcore_hartree_on_grid            :     1        0.01s   0.000%  ------ ||
|| paw_tcore_density                    :     1        0.01s   0.000%  ------ ||
|| paw_sphere_density_on_grid           :     1        0.01s   0.000%  ------ ||
|| sparse_set_to_garbage                :   171        0.03s   0.001%  ------ ||
|| paw_dij_hartree                      :   360        0.05s   0.001%  ------ ||
|| pseudo_make_structure_factor         :     1        0.05s   0.001%  ------ ||
|| basis_extract_function_from_box      :  1920        0.08s   0.002%  ------ ||
|| paw_species_calc_proj_prec_mat       :     1        0.12s   0.003%  ------ ||
|| paw_dataset_init                     :     1        0.15s   0.004%  ------ ||
|| density_init_guess_real              :     1        0.21s   0.005%  ------ ||
|| ngwfs_initialise_from_radial         :     2        0.67s   0.016%  ------ ||
|| restart_kernel_write                 :    16        0.94s   0.023%  ------ ||
|| sparse_init                          :     1        0.95s   0.023%  ------ ||
|| dense_normal_eigensolve              :     1        0.99s   0.024%  ------ ||
|| hartree_on_grid                      :   270        1.50s   0.037%  ------ ||
|| ewald_calculate_energy               :     1        2.57s   0.063%  ------ ||
|| projectors_init_fftbox_recip         :   151        2.95s   0.072%  ------ ||
|| fourier_apply_box_pair               :  2848        4.71s   0.115% 560.488 ||
|| basis_copy_function_to_box           : 25536        5.50s   0.134%  ------ ||
|| augmentation_screen_dij              :   275        6.18s   0.151%  ------ ||
|| sw_init                              :     1        6.73s   0.164%  ------ ||
|| sparse_embed_hotelling_invert_embed  :    29        8.84s   0.216%  ------ ||
|| ngwf_gradient_coeffs                 :    15       12.05s   0.294%  ------ ||
|| cell_grid_extract_box_real           : 10748       16.59s   0.405%  ------ ||
|| fourier_apply_cell_backward          :  8341       17.16s   0.419%  56.582 ||
|| sparse_trace                         :  3264       18.41s   0.450%  ------ ||
|| fourier_apply_cell_forward           :  7802       18.82s   0.460%  48.256 ||
|| cell_grid_deposit_box_real           : 34736       23.46s   0.573%  ------ ||
|| paw_dij_xc                           :   360       24.28s   0.593%  ------ ||
|| aug_nonlocal_mat                     :   345       36.92s   0.902%  ------ ||
|| density_fftbox_deposit_to_cell       : 17280       46.77s   1.142%  ------ ||
|| hamiltonian_energy_components        :     3       50.18s   1.226%  ------ ||
|| augmentation_density_on_grid         :   270       53.06s   1.296%  ------ ||
|| eigenstates_pdos                     :     1       55.33s   1.352%  ------ ||
|| eigenstates_calculate                :     1       59.62s   1.456%  ------ ||
|| function_ops_brappd_ketppd           :    60       64.35s   1.572%  ------ ||
|| projectors_func_ovlp_box             :    30       72.72s   1.776%  ------ ||
|| nlxc_vdw_energy                      :   538       72.96s   1.782%  ------ ||
|| xc_energy_potential                  :   269       80.95s   1.977%  ------ ||
|| integrals_kinetic                    :    29      106.63s   2.605%  ------ ||
|| properties_calculate                 :     1      106.94s   2.612%  ------ ||
|| dense_eigensolve                     :   237      119.99s   2.931%  ------ ||
|| restart_ngwfs_tightbox_output        :    14      124.79s   3.048%  ------ ||
|| potential_apply_to_ngwf_batch        :   336      132.48s   3.236%  ------ ||
|| sparse_product                       :  3286      149.39s   3.649%  ------ ||
|| basis_dot_function_with_box          : 8.453M     231.29s   5.649%  ------ ||
|| fourier_apply_box                    : 80416      250.26s   6.113% 977.083 ||
|| edft_diag_ngwf_ham                   :   236      264.84s   6.469%  ------ ||
|| projectors_gradient_batch            :    60      283.44s   6.923%  ------ ||
|| integrals_locpot_mat_els_batch       :   336      315.10s   7.697%  ------ ||
|| density_fftbox_interpolate_multiply  : 17280      334.15s   8.162%  ------ ||
|| projectors_grad_precond_batch        :    60      414.17s  10.117%  ------ ||
|| density_batch_interp_deposit         :  1080      422.96s  10.331%  ------ ||
|| integrals_locpot_dbl_grid            :    84      449.31s  10.975%  ------ ||
|| edft_apply_smearing_operator         :   236      514.51s  12.567%  ------ ||
|| basis_add_function_to_box            : 23.99M     631.22s  15.418%  ------ ||
|| ngwf_gradient_build_batch            :    60      743.05s  18.150%  ------ ||
|| density_batch_row_sums               :  1080      911.74s  22.270%  ------ ||
|| ngwf_gradient_batch                  :    60      983.83s  24.031%  ------ ||
|| ngwf_gradient_lnv                    :    15     1012.90s  24.741%  ------ ||
|| density_on_dbl_grid                  :   270     1349.52s  32.963%  ------ ||
|| hamiltonian_lhxc_calculate           :   265     1461.60s  35.701%  ------ ||
|| edft_calculate                       :    15     2416.21s  59.018%  ------ ||
|| ngwf_cg_optimise                     :     1     3960.93s  96.749%  ------ ||
|| total_time                           :     1     4094.01s 100.000%  ------ ||
================================================================================
Overhead of generating timer report: 
- 0 ms averaging over threads,
- 5 ms ensuring consistency across MPI ranks,
- 0 ms printing in order.

Job completed: 25-02-2020 15:09 (-0000)

