 +---------------------------------------------------------------+
 |                                                               |
 |        ####### #     # ####### ####### ####### ######         |
 |        #     # ##    # #          #    #       #     #        |
 |        #     # # #   # #          #    #       #     #        |
 |        #     # #  #  # #####      #    #####   ######         |
 |        #     # #   # # #          #    #       #              |
 |        #     # #    ## #          #    #       #              |
 |        ####### #     # #######    #    ####### #              |
 |                                                               |
 |        Linear-Scaling Ab Initio Total Energy Program          |
 |                                                               |
 |          Release for academic collaborators of ODG            |
 |                                             Version 5.3.2.12  |
 |                                                               |
 +---------------------------------------------------------------+
 |                                                               |
 |  Authors:                                                     |
 |  Jacek Dziedzic, Peter D. Haynes, Nicholas D. M. Hine,        |
 |  Arash. A. Mostofi, Mike C. Payne and Chris-Kriton Skylaris   |
 |                                                               |
 |  Contributors:                                                |
 |  J. Aarons, L. Andrinopoulos, P. W. Avraam, R. A. Bell,       |
 |  A. Bhandari, G. A. Bramley, R. J. Charlton, S. J. Clark,     |
 |  R. J. Clements, G. C. Constantinescu, F. Corsetti,           |
 |  N. Corsini, O. Dieguez, S. M. M. Dubois, K. K. B. Duff,      |
 |  J. M. Escartin, A. Greco, H. Helal, Q. O. Hill, L. P. Lee,   |
 |  J.-H. Li, E. B. Linscott, G. Moynihan, D. D. O`Regan,        |
 |  O. K. Okan, M. J. S. Phipps, C. J. Pickard,                  |
 |  J. C. A. Prentice, M. I. J. Probert, L. E. Ratcliff,         |
 |  M. Robinson, A. Ruiz Serrano, J. S. Spencer, E. W. Tait,     |
 |  G. Teobaldi, D. Turban, V. Vitale, K. A. Wilkinson,          |
 |  C. Weber, J. C. Womack, N. Yeung and T. J. Zuehlsdorff       |
 |                                                               |
 |                                   Copyright (c) 2004-2020     |
 |                                                               |
 |  Please cite:                                                 |
 |  "Introducing ONETEP: Linear-scaling density functional       |
 |   simulations on parallel computers".                         |
 |   C.-K. Skylaris, P. D. Haynes, A. A. Mostofi, M. C. Payne.   |
 |   J. Chem. Phys. 122 084119 (2005).                           |
 |                                                               |
 |          in all publications arising from your use of ONETEP. |
 |                                                               |
 +---------------------------------------------------------------+
 |                                                               |
 |   ONETEP is based on developments described in the following  |
 |   publications:                                               |
 |                                                               |
 |  "Nonorthogonal generalized Wannier function pseudopotential  |
 |   plane-wave method".                                         |
 |   C.-K. Skylaris, A. A. Mostofi, P. D. Haynes, O. Dieguez,    |
 |   M. C. Payne.                                                |
 |   Phys. Rev. B 66 035119 (2002).                              |
 |                                                               |
 |  "Preconditioned iterative minimization for linear-scaling    |
 |   electronic structure calculations".                         |
 |   A. A. Mostofi, P. D. Haynes, C.-K. Skylaris, M. C. Payne.   |
 |   J. Chem. Phys. 119(17), pp.8842-8848 (2003).                |
 |                                                               |
 |  "Total-energy calculations on a real space grid with         |
 |   localized functions and a plane-wave basis".                |
 |   A. A. Mostofi, C.-K. Skylaris, P. D. Haynes, M. C. Payne.   |
 |   Comput. Phys. Commun. 147, pp.788-802 (2002).               |
 |                                                               |
 |  "Accurate kinetic energy evaluation in electronic structure  |
 |   calculations with localized functions on real space grids"  |
 |   C.-K. Skylaris, A. A. Mostofi, P. D. Haynes, C. J. Pickard, |
 |   M. C. Payne.                                                |
 |   Comput. Phys. Commun. 140, pp.315-322 (2001).               |
 |                                                               |
 |  "Accurate ionic forces and geometry optimization in linear-  |
 |   scaling density-functional theory with local orbitals"      |
 |   N. D. M. Hine, M. Robinson, P. D. Haynes, C.-K. Skylaris,   |
 |   M. C. Payne, and A. A. Mostofi.                             |
 |   Phys. Rev. B 83 195102 (2011).                              |
 |                                                               |
 +---------------------------------------------------------------+

Job started: 25-02-2020 14:15 (-0000)
 
Reading parameters from file "3.4344936_GO_manual_4x64graphite.dat" ...

WARNING: "cutoff_energy" not specified, but "psinc_spacing" specified.
         Using the latter to set the KE cutoff energy to  732.32021eV,
         thus *overriding* the default.

... done

If your calculation crashes here, before "Checking processes and threads..."
is displayed, then your stack size is insufficient.
If so, use "ulimit -s unlimited" at runtime.
You can disable this check with "check_stack_size F".

Checking processes and threads...
   Determining the default number of threads...
      No default threads set at compilation time: defaulting to 1.
      OpenMP library call suggests 4 threads.
      Hybrid MPI-OpenMP compilation detected.
      Number of MPI processes > 1.
      OMP_NUM_THREADS environment variable present and
      its value matches the one obtained from the OpenMP library call.
      Using this value as default.
      Default threads: 4
      Default applies to threads_max and threads_num_fftboxes.
      Settings in the input file override this default.
   ... done

   Running with 40 MPI processes.
   There are 10 MPI processes running on the same node as the root process.
   Each MPI process is using: 
               1 threads for simulation cell FFTs.
               1 threads for parallel FFT box operations.
               4 threads for loops over batched FFT box operations.
               4 threads in other parallel regions.
... done

Basic input checks...
Resetting ngwf_cg_rotate to TRUE for EDFT calculations
... done

Reading geometry and species blocks from file "3.4344936_GO_manual_4x64graphite.dat" ...
    
  PSINC grid spacing along a1 set to   0.511215680000a0 from input file.
  PSINC grid spacing along a2 set to   0.531284090000a0 from input file.
  PSINC grid spacing along a3 set to   0.507052000000a0 from input file.
  Number of PPD points along a3 set to 1.  This is 
  the default value, it may have been provided also in the input file.
... done
 Writing xyz coordinates to file "3.4344936_GO_manual_4x64graphite.xyz" ... done


--------------------------------------------------------------------------------
---------------------------------- INPUT FILE ----------------------------------
--------------------------------------------------------------------------------

task : singlepoint                                                              
do_properties : true                                                            
dx_format T                                                                     
edft T                                                                          
output_detail VERBOSE                                                           
write_xyz T                                                                     
xc_functional OPTB88                                                            
PSINC_SPACING 0.51121568 0.53128409 0.50705200                                  
paw T                                                                           
pdos_max_l = 2                                                                  
dos_smear  0.1 eV                                                               
popn_calculate T                                                                
PDOS_PSEUDOATOMIC T                                                             
PDOS_REDUCE_SWS F                                                               
PDOS_CONSTRUCT_BASIS F                                                          
PDOS_LOWDIN T                                                                   
PDOS_ORTH_ATOM_BLOCKS F                                                         
PDOS_LCAO_OPTIMIZE F                                                            
pdos_optados_output T                                                           
homo_plot 0                                                                     
lumo_plot 0                                                                     
homo_dens_plot -1                                                               
lumo_dens_plot -1                                                               
%BLOCK SPECIES                                                                  
C C 6 4 9.0                                                                     
%ENDBLOCK SPECIES                                                               
%BLOCK SPECIES_POT                                                              
C "~/pp/paw/c_pbe_abinit.paw"                                                   
%ENDBLOCK SPECIES_POT                                                           
%BLOCK SPECIES_ATOMIC_SET                                                       
C "SOLVE conf=2s2 2p2"                                                          
%ENDBLOCK SPECIES_ATOMIC_SET                                                    
%BLOCK LATTICE_CART                                                             
32.21  0.00  0.00                                                               
0.00 18.59  0.00                                                                
0.00  0.00 64.90                                                                
%ENDBLOCK LATTICE_CART                                                          
%BLOCK POSITIONS_ABS                                                            
C  0.00  0.00  3.25                                                             
C  0.00  0.00 16.23                                                             
C  0.00  0.00 29.21                                                             
C  0.00  0.00 42.19                                                             
C  0.00  0.00 55.17                                                             
C  0.00  4.65  3.25                                                             
C  0.00  4.65 16.23                                                             
C  0.00  4.65 29.21                                                             
C  0.00  4.65 42.19                                                             
C  0.00  4.65 55.17                                                             
C  4.03  2.32  3.25                                                             
C  4.03  2.32 16.23                                                             
C  4.03  2.32 29.21                                                             
C  4.03  2.32 42.19                                                             
C  4.03  2.32 55.17                                                             
C  8.05  0.00  3.25                                                             
C  8.05  0.00 16.23                                                             
C  8.05  0.00 29.21                                                             
C  8.05  0.00 42.19                                                             
C  8.05  0.00 55.17                                                             
C  0.00  9.30  3.25                                                             
C  0.00  9.30 16.23                                                             
C  0.00  9.30 29.21                                                             
C  0.00  9.30 42.19                                                             
C  0.00  9.30 55.17                                                             
C  4.03  6.97  3.25                                                             
C  4.03  6.97 16.23                                                             
C  4.03  6.97 29.21                                                             
C  4.03  6.97 42.19                                                             
C  4.03  6.97 55.17                                                             
C  8.05  4.65  3.25                                                             
C  8.05  4.65 16.23                                                             
C  8.05  4.65 29.21                                                             
C  8.05  4.65 42.19                                                             
C  8.05  4.65 55.17                                                             
C 12.08  2.32  3.25                                                             
C 12.08  2.32 16.23                                                             
C 12.08  2.32 29.21                                                             
C 12.08  2.32 42.19                                                             
C 12.08  2.32 55.17                                                             
C 16.10  0.00  3.25                                                             
C 16.10  0.00 16.23                                                             
C 16.10  0.00 29.21                                                             
C 16.10  0.00 42.19                                                             
C 16.10  0.00 55.17                                                             
C  0.00 13.95  3.25                                                             
C  0.00 13.95 16.23                                                             
C  0.00 13.95 29.21                                                             
C  0.00 13.95 42.19                                                             
C  0.00 13.95 55.17                                                             
C  4.03 11.62  3.25                                                             
C  4.03 11.62 16.23                                                             
C  4.03 11.62 29.21                                                             
C  4.03 11.62 42.19                                                             
C  4.03 11.62 55.17                                                             
C  8.05  9.30  3.25                                                             
C  8.05  9.30 16.23                                                             
C  8.05  9.30 29.21                                                             
C  8.05  9.30 42.19                                                             
C  8.05  9.30 55.17                                                             
C 12.08  6.97  3.25                                                             
C 12.08  6.97 16.23                                                             
C 12.08  6.97 29.21                                                             
C 12.08  6.97 42.19                                                             
C 12.08  6.97 55.17                                                             
C 16.10  4.65  3.25                                                             
C 16.10  4.65 16.23                                                             
C 16.10  4.65 29.21                                                             
C 16.10  4.65 42.19                                                             
C 16.10  4.65 55.17                                                             
C 20.13  2.32  3.25                                                             
C 20.13  2.32 16.23                                                             
C 20.13  2.32 29.21                                                             
C 20.13  2.32 42.19                                                             
C 20.13  2.32 55.17                                                             
C 24.16  0.00  3.25                                                             
C 24.16  0.00 16.23                                                             
C 24.16  0.00 29.21                                                             
C 24.16  0.00 42.19                                                             
C 24.16  0.00 55.17                                                             
C  4.03 16.27  3.25                                                             
C  4.03 16.27 16.23                                                             
C  4.03 16.27 29.21                                                             
C  4.03 16.27 42.19                                                             
C  4.03 16.27 55.17                                                             
C  8.05 13.95  3.25                                                             
C  8.05 13.95 16.23                                                             
C  8.05 13.95 29.21                                                             
C  8.05 13.95 42.19                                                             
C  8.05 13.95 55.17                                                             
C 12.08 11.62  3.25                                                             
C 12.08 11.62 16.23                                                             
C 12.08 11.62 29.21                                                             
C 12.08 11.62 42.19                                                             
C 12.08 11.62 55.17                                                             
C 16.10  9.30  3.25                                                             
C 16.10  9.30 16.23                                                             
C 16.10  9.30 29.21                                                             
C 16.10  9.30 42.19                                                             
C 16.10  9.30 55.17                                                             
C 20.13  6.97  3.25                                                             
C 20.13  6.97 16.23                                                             
C 20.13  6.97 29.21                                                             
C 20.13  6.97 42.19                                                             
C 20.13  6.97 55.17                                                             
C 24.16  4.65  3.25                                                             
C 24.16  4.65 16.23                                                             
C 24.16  4.65 29.21                                                             
C 24.16  4.65 42.19                                                             
C 24.16  4.65 55.17                                                             
C 28.18  2.32  3.25                                                             
C 28.18  2.32 16.23                                                             
C 28.18  2.32 29.21                                                             
C 28.18  2.32 42.19                                                             
C 28.18  2.32 55.17                                                             
C 12.08 16.27  3.25                                                             
C 12.08 16.27 16.23                                                             
C 12.08 16.27 29.21                                                             
C 12.08 16.27 42.19                                                             
C 12.08 16.27 55.17                                                             
C 16.10 13.95  3.25                                                             
C 16.10 13.95 16.23                                                             
C 16.10 13.95 29.21                                                             
C 16.10 13.95 42.19                                                             
C 16.10 13.95 55.17                                                             
C 20.13 11.62  3.25                                                             
C 20.13 11.62 16.23                                                             
C 20.13 11.62 29.21                                                             
C 20.13 11.62 42.19                                                             
C 20.13 11.62 55.17                                                             
C 24.16  9.30  3.25                                                             
C 24.16  9.30 16.23                                                             
C 24.16  9.30 29.21                                                             
C 24.16  9.30 42.19                                                             
C 24.16  9.30 55.17                                                             
C 28.18  6.97  3.25                                                             
C 28.18  6.97 16.23                                                             
C 28.18  6.97 29.21                                                             
C 28.18  6.97 42.19                                                             
C 28.18  6.97 55.17                                                             
C 20.13 16.27  3.25                                                             
C 20.13 16.27 16.23                                                             
C 20.13 16.27 29.21                                                             
C 20.13 16.27 42.19                                                             
C 20.13 16.27 55.17                                                             
C 24.16 13.95  3.25                                                             
C 24.16 13.95 16.23                                                             
C 24.16 13.95 29.21                                                             
C 24.16 13.95 42.19                                                             
C 24.16 13.95 55.17                                                             
C 28.18 11.62  3.25                                                             
C 28.18 11.62 16.23                                                             
C 28.18 11.62 29.21                                                             
C 28.18 11.62 42.19                                                             
C 28.18 11.62 55.17                                                             
C 28.18 16.27  3.25                                                             
C 28.18 16.27 16.23                                                             
C 28.18 16.27 29.21                                                             
C 28.18 16.27 42.19                                                             
C 28.18 16.27 55.17                                                             
C  0.00  0.00  9.74                                                             
C  0.00  0.00 22.72                                                             
C  0.00  0.00 35.70                                                             
C  0.00  0.00 48.68                                                             
C  0.00  0.00 61.66                                                             
C  0.00  4.65  9.74                                                             
C  0.00  4.65 22.72                                                             
C  0.00  4.65 35.70                                                             
C  0.00  4.65 48.68                                                             
C  0.00  4.65 61.66                                                             
C  4.03  2.32  9.74                                                             
C  4.03  2.32 22.72                                                             
C  4.03  2.32 35.70                                                             
C  4.03  2.32 48.68                                                             
C  4.03  2.32 61.66                                                             
C  8.05  0.00  9.74                                                             
C  8.05  0.00 22.72                                                             
C  8.05  0.00 35.70                                                             
C  8.05  0.00 48.68                                                             
C  8.05  0.00 61.66                                                             
C  0.00  9.30  9.74                                                             
C  0.00  9.30 22.72                                                             
C  0.00  9.30 35.70                                                             
C  0.00  9.30 48.68                                                             
C  0.00  9.30 61.66                                                             
C  4.03  6.97  9.74                                                             
C  4.03  6.97 22.72                                                             
C  4.03  6.97 35.70                                                             
C  4.03  6.97 48.68                                                             
C  4.03  6.97 61.66                                                             
C  8.05  4.65  9.74                                                             
C  8.05  4.65 22.72                                                             
C  8.05  4.65 35.70                                                             
C  8.05  4.65 48.68                                                             
C  8.05  4.65 61.66                                                             
C 12.08  2.32  9.74                                                             
C 12.08  2.32 22.72                                                             
C 12.08  2.32 35.70                                                             
C 12.08  2.32 48.68                                                             
C 12.08  2.32 61.66                                                             
C 16.10  0.00  9.74                                                             
C 16.10  0.00 22.72                                                             
C 16.10  0.00 35.70                                                             
C 16.10  0.00 48.68                                                             
C 16.10  0.00 61.66                                                             
C  0.00 13.95  9.74                                                             
C  0.00 13.95 22.72                                                             
C  0.00 13.95 35.70                                                             
C  0.00 13.95 48.68                                                             
C  0.00 13.95 61.66                                                             
C  4.03 11.62  9.74                                                             
C  4.03 11.62 22.72                                                             
C  4.03 11.62 35.70                                                             
C  4.03 11.62 48.68                                                             
C  4.03 11.62 61.66                                                             
C  8.05  9.30  9.74                                                             
C  8.05  9.30 22.72                                                             
C  8.05  9.30 35.70                                                             
C  8.05  9.30 48.68                                                             
C  8.05  9.30 61.66                                                             
C 12.08  6.97  9.74                                                             
C 12.08  6.97 22.72                                                             
C 12.08  6.97 35.70                                                             
C 12.08  6.97 48.68                                                             
C 12.08  6.97 61.66                                                             
C 16.10  4.65  9.74                                                             
C 16.10  4.65 22.72                                                             
C 16.10  4.65 35.70                                                             
C 16.10  4.65 48.68                                                             
C 16.10  4.65 61.66                                                             
C 20.13  2.32  9.74                                                             
C 20.13  2.32 22.72                                                             
C 20.13  2.32 35.70                                                             
C 20.13  2.32 48.68                                                             
C 20.13  2.32 61.66                                                             
C 24.16  0.00  9.74                                                             
C 24.16  0.00 22.72                                                             
C 24.16  0.00 35.70                                                             
C 24.16  0.00 48.68                                                             
C 24.16  0.00 61.66                                                             
C  4.03 16.27  9.74                                                             
C  4.03 16.27 22.72                                                             
C  4.03 16.27 35.70                                                             
C  4.03 16.27 48.68                                                             
C  4.03 16.27 61.66                                                             
C  8.05 13.95  9.74                                                             
C  8.05 13.95 22.72                                                             
C  8.05 13.95 35.70                                                             
C  8.05 13.95 48.68                                                             
C  8.05 13.95 61.66                                                             
C 12.08 11.62  9.74                                                             
C 12.08 11.62 22.72                                                             
C 12.08 11.62 35.70                                                             
C 12.08 11.62 48.68                                                             
C 12.08 11.62 61.66                                                             
C 16.10  9.30  9.74                                                             
C 16.10  9.30 22.72                                                             
C 16.10  9.30 35.70                                                             
C 16.10  9.30 48.68                                                             
C 16.10  9.30 61.66                                                             
C 20.13  6.97  9.74                                                             
C 20.13  6.97 22.72                                                             
C 20.13  6.97 35.70                                                             
C 20.13  6.97 48.68                                                             
C 20.13  6.97 61.66                                                             
C 24.16  4.65  9.74                                                             
C 24.16  4.65 22.72                                                             
C 24.16  4.65 35.70                                                             
C 24.16  4.65 48.68                                                             
C 24.16  4.65 61.66                                                             
C 28.18  2.32  9.74                                                             
C 28.18  2.32 22.72                                                             
C 28.18  2.32 35.70                                                             
C 28.18  2.32 48.68                                                             
C 28.18  2.32 61.66                                                             
C 12.08 16.27  9.74                                                             
C 12.08 16.27 22.72                                                             
C 12.08 16.27 35.70                                                             
C 12.08 16.27 48.68                                                             
C 12.08 16.27 61.66                                                             
C 16.10 13.95  9.74                                                             
C 16.10 13.95 22.72                                                             
C 16.10 13.95 35.70                                                             
C 16.10 13.95 48.68                                                             
C 16.10 13.95 61.66                                                             
C 20.13 11.62  9.74                                                             
C 20.13 11.62 22.72                                                             
C 20.13 11.62 35.70                                                             
C 20.13 11.62 48.68                                                             
C 20.13 11.62 61.66                                                             
C 24.16  9.30  9.74                                                             
C 24.16  9.30 22.72                                                             
C 24.16  9.30 35.70                                                             
C 24.16  9.30 48.68                                                             
C 24.16  9.30 61.66                                                             
C 28.18  6.97  9.74                                                             
C 28.18  6.97 22.72                                                             
C 28.18  6.97 35.70                                                             
C 28.18  6.97 48.68                                                             
C 28.18  6.97 61.66                                                             
C 20.13 16.27  9.74                                                             
C 20.13 16.27 22.72                                                             
C 20.13 16.27 35.70                                                             
C 20.13 16.27 48.68                                                             
C 20.13 16.27 61.66                                                             
C 24.16 13.95  9.74                                                             
C 24.16 13.95 22.72                                                             
C 24.16 13.95 35.70                                                             
C 24.16 13.95 48.68                                                             
C 24.16 13.95 61.66                                                             
C 28.18 11.62  9.74                                                             
C 28.18 11.62 22.72                                                             
C 28.18 11.62 35.70                                                             
C 28.18 11.62 48.68                                                             
C 28.18 11.62 61.66                                                             
C 28.18 16.27  9.74                                                             
C 28.18 16.27 22.72                                                             
C 28.18 16.27 35.70                                                             
C 28.18 16.27 48.68                                                             
C 28.18 16.27 61.66                                                             
C  1.34  2.32  3.25                                                             
C  1.34  2.32 16.23                                                             
C  1.34  2.32 29.21                                                             
C  1.34  2.32 42.19                                                             
C  1.34  2.32 55.17                                                             
C  5.37  0.00  3.25                                                             
C  5.37  0.00 16.23                                                             
C  5.37  0.00 29.21                                                             
C  5.37  0.00 42.19                                                             
C  5.37  0.00 55.17                                                             
C  1.34  6.97  3.25                                                             
C  1.34  6.97 16.23                                                             
C  1.34  6.97 29.21                                                             
C  1.34  6.97 42.19                                                             
C  1.34  6.97 55.17                                                             
C  5.37  4.65  3.25                                                             
C  5.37  4.65 16.23                                                             
C  5.37  4.65 29.21                                                             
C  5.37  4.65 42.19                                                             
C  5.37  4.65 55.17                                                             
C  9.39  2.32  3.25                                                             
C  9.39  2.32 16.23                                                             
C  9.39  2.32 29.21                                                             
C  9.39  2.32 42.19                                                             
C  9.39  2.32 55.17                                                             
C 13.42  0.00  3.25                                                             
C 13.42  0.00 16.23                                                             
C 13.42  0.00 29.21                                                             
C 13.42  0.00 42.19                                                             
C 13.42  0.00 55.17                                                             
C  1.34 11.62  3.25                                                             
C  1.34 11.62 16.23                                                             
C  1.34 11.62 29.21                                                             
C  1.34 11.62 42.19                                                             
C  1.34 11.62 55.17                                                             
C  5.37  9.30  3.25                                                             
C  5.37  9.30 16.23                                                             
C  5.37  9.30 29.21                                                             
C  5.37  9.30 42.19                                                             
C  5.37  9.30 55.17                                                             
C  9.39  6.97  3.25                                                             
C  9.39  6.97 16.23                                                             
C  9.39  6.97 29.21                                                             
C  9.39  6.97 42.19                                                             
C  9.39  6.97 55.17                                                             
C 13.42  4.65  3.25                                                             
C 13.42  4.65 16.23                                                             
C 13.42  4.65 29.21                                                             
C 13.42  4.65 42.19                                                             
C 13.42  4.65 55.17                                                             
C 17.45  2.32  3.25                                                             
C 17.45  2.32 16.23                                                             
C 17.45  2.32 29.21                                                             
C 17.45  2.32 42.19                                                             
C 17.45  2.32 55.17                                                             
C 21.47  0.00  3.25                                                             
C 21.47  0.00 16.23                                                             
C 21.47  0.00 29.21                                                             
C 21.47  0.00 42.19                                                             
C 21.47  0.00 55.17                                                             
C  1.34 16.27  3.25                                                             
C  1.34 16.27 16.23                                                             
C  1.34 16.27 29.21                                                             
C  1.34 16.27 42.19                                                             
C  1.34 16.27 55.17                                                             
C  5.37 13.95  3.25                                                             
C  5.37 13.95 16.23                                                             
C  5.37 13.95 29.21                                                             
C  5.37 13.95 42.19                                                             
C  5.37 13.95 55.17                                                             
C  9.39 11.62  3.25                                                             
C  9.39 11.62 16.23                                                             
C  9.39 11.62 29.21                                                             
C  9.39 11.62 42.19                                                             
C  9.39 11.62 55.17                                                             
C 13.42  9.30  3.25                                                             
C 13.42  9.30 16.23                                                             
C 13.42  9.30 29.21                                                             
C 13.42  9.30 42.19                                                             
C 13.42  9.30 55.17                                                             
C 17.45  6.97  3.25                                                             
C 17.45  6.97 16.23                                                             
C 17.45  6.97 29.21                                                             
C 17.45  6.97 42.19                                                             
C 17.45  6.97 55.17                                                             
C 21.47  4.65  3.25                                                             
C 21.47  4.65 16.23                                                             
C 21.47  4.65 29.21                                                             
C 21.47  4.65 42.19                                                             
C 21.47  4.65 55.17                                                             
C 25.50  2.32  3.25                                                             
C 25.50  2.32 16.23                                                             
C 25.50  2.32 29.21                                                             
C 25.50  2.32 42.19                                                             
C 25.50  2.32 55.17                                                             
C 29.52  0.00  3.25                                                             
C 29.52  0.00 16.23                                                             
C 29.52  0.00 29.21                                                             
C 29.52  0.00 42.19                                                             
C 29.52  0.00 55.17                                                             
C  9.39 16.27  3.25                                                             
C  9.39 16.27 16.23                                                             
C  9.39 16.27 29.21                                                             
C  9.39 16.27 42.19                                                             
C  9.39 16.27 55.17                                                             
C 13.42 13.95  3.25                                                             
C 13.42 13.95 16.23                                                             
C 13.42 13.95 29.21                                                             
C 13.42 13.95 42.19                                                             
C 13.42 13.95 55.17                                                             
C 17.45 11.62  3.25                                                             
C 17.45 11.62 16.23                                                             
C 17.45 11.62 29.21                                                             
C 17.45 11.62 42.19                                                             
C 17.45 11.62 55.17                                                             
C 21.47  9.30  3.25                                                             
C 21.47  9.30 16.23                                                             
C 21.47  9.30 29.21                                                             
C 21.47  9.30 42.19                                                             
C 21.47  9.30 55.17                                                             
C 25.50  6.97  3.25                                                             
C 25.50  6.97 16.23                                                             
C 25.50  6.97 29.21                                                             
C 25.50  6.97 42.19                                                             
C 25.50  6.97 55.17                                                             
C 29.52  4.65  3.25                                                             
C 29.52  4.65 16.23                                                             
C 29.52  4.65 29.21                                                             
C 29.52  4.65 42.19                                                             
C 29.52  4.65 55.17                                                             
C 17.45 16.27  3.25                                                             
C 17.45 16.27 16.23                                                             
C 17.45 16.27 29.21                                                             
C 17.45 16.27 42.19                                                             
C 17.45 16.27 55.17                                                             
C 21.47 13.95  3.25                                                             
C 21.47 13.95 16.23                                                             
C 21.47 13.95 29.21                                                             
C 21.47 13.95 42.19                                                             
C 21.47 13.95 55.17                                                             
C 25.50 11.62  3.25                                                             
C 25.50 11.62 16.23                                                             
C 25.50 11.62 29.21                                                             
C 25.50 11.62 42.19                                                             
C 25.50 11.62 55.17                                                             
C 29.52  9.30  3.25                                                             
C 29.52  9.30 16.23                                                             
C 29.52  9.30 29.21                                                             
C 29.52  9.30 42.19                                                             
C 29.52  9.30 55.17                                                             
C 25.50 16.27  3.25                                                             
C 25.50 16.27 16.23                                                             
C 25.50 16.27 29.21                                                             
C 25.50 16.27 42.19                                                             
C 25.50 16.27 55.17                                                             
C 29.52 13.95  3.25                                                             
C 29.52 13.95 16.23                                                             
C 29.52 13.95 29.21                                                             
C 29.52 13.95 42.19                                                             
C 29.52 13.95 55.17                                                             
C  2.68  0.00  9.74                                                             
C  2.68  0.00 22.72                                                             
C  2.68  0.00 35.70                                                             
C  2.68  0.00 48.68                                                             
C  2.68  0.00 61.66                                                             
C  2.68  4.65  9.74                                                             
C  2.68  4.65 22.72                                                             
C  2.68  4.65 35.70                                                             
C  2.68  4.65 48.68                                                             
C  2.68  4.65 61.66                                                             
C  6.71  2.32  9.74                                                             
C  6.71  2.32 22.72                                                             
C  6.71  2.32 35.70                                                             
C  6.71  2.32 48.68                                                             
C  6.71  2.32 61.66                                                             
C 10.74  0.00  9.74                                                             
C 10.74  0.00 22.72                                                             
C 10.74  0.00 35.70                                                             
C 10.74  0.00 48.68                                                             
C 10.74  0.00 61.66                                                             
C  2.68  9.30  9.74                                                             
C  2.68  9.30 22.72                                                             
C  2.68  9.30 35.70                                                             
C  2.68  9.30 48.68                                                             
C  2.68  9.30 61.66                                                             
C  6.71  6.97  9.74                                                             
C  6.71  6.97 22.72                                                             
C  6.71  6.97 35.70                                                             
C  6.71  6.97 48.68                                                             
C  6.71  6.97 61.66                                                             
C 10.74  4.65  9.74                                                             
C 10.74  4.65 22.72                                                             
C 10.74  4.65 35.70                                                             
C 10.74  4.65 48.68                                                             
C 10.74  4.65 61.66                                                             
C 14.76  2.32  9.74                                                             
C 14.76  2.32 22.72                                                             
C 14.76  2.32 35.70                                                             
C 14.76  2.32 48.68                                                             
C 14.76  2.32 61.66                                                             
C 18.79  0.00  9.74                                                             
C 18.79  0.00 22.72                                                             
C 18.79  0.00 35.70                                                             
C 18.79  0.00 48.68                                                             
C 18.79  0.00 61.66                                                             
C  2.68 13.95  9.74                                                             
C  2.68 13.95 22.72                                                             
C  2.68 13.95 35.70                                                             
C  2.68 13.95 48.68                                                             
C  2.68 13.95 61.66                                                             
C  6.71 11.62  9.74                                                             
C  6.71 11.62 22.72                                                             
C  6.71 11.62 35.70                                                             
C  6.71 11.62 48.68                                                             
C  6.71 11.62 61.66                                                             
C 10.74  9.30  9.74                                                             
C 10.74  9.30 22.72                                                             
C 10.74  9.30 35.70                                                             
C 10.74  9.30 48.68                                                             
C 10.74  9.30 61.66                                                             
C 14.76  6.97  9.74                                                             
C 14.76  6.97 22.72                                                             
C 14.76  6.97 35.70                                                             
C 14.76  6.97 48.68                                                             
C 14.76  6.97 61.66                                                             
C 18.79  4.65  9.74                                                             
C 18.79  4.65 22.72                                                             
C 18.79  4.65 35.70                                                             
C 18.79  4.65 48.68                                                             
C 18.79  4.65 61.66                                                             
C 22.81  2.32  9.74                                                             
C 22.81  2.32 22.72                                                             
C 22.81  2.32 35.70                                                             
C 22.81  2.32 48.68                                                             
C 22.81  2.32 61.66                                                             
C 26.84  0.00  9.74                                                             
C 26.84  0.00 22.72                                                             
C 26.84  0.00 35.70                                                             
C 26.84  0.00 48.68                                                             
C 26.84  0.00 61.66                                                             
C  6.71 16.27  9.74                                                             
C  6.71 16.27 22.72                                                             
C  6.71 16.27 35.70                                                             
C  6.71 16.27 48.68                                                             
C  6.71 16.27 61.66                                                             
C 10.74 13.95  9.74                                                             
C 10.74 13.95 22.72                                                             
C 10.74 13.95 35.70                                                             
C 10.74 13.95 48.68                                                             
C 10.74 13.95 61.66                                                             
C 14.76 11.62  9.74                                                             
C 14.76 11.62 22.72                                                             
C 14.76 11.62 35.70                                                             
C 14.76 11.62 48.68                                                             
C 14.76 11.62 61.66                                                             
C 18.79  9.30  9.74                                                             
C 18.79  9.30 22.72                                                             
C 18.79  9.30 35.70                                                             
C 18.79  9.30 48.68                                                             
C 18.79  9.30 61.66                                                             
C 22.81  6.97  9.74                                                             
C 22.81  6.97 22.72                                                             
C 22.81  6.97 35.70                                                             
C 22.81  6.97 48.68                                                             
C 22.81  6.97 61.66                                                             
C 26.84  4.65  9.74                                                             
C 26.84  4.65 22.72                                                             
C 26.84  4.65 35.70                                                             
C 26.84  4.65 48.68                                                             
C 26.84  4.65 61.66                                                             
C 30.86  2.32  9.74                                                             
C 30.86  2.32 22.72                                                             
C 30.86  2.32 35.70                                                             
C 30.86  2.32 48.68                                                             
C 30.86  2.32 61.66                                                             
C 14.76 16.27  9.74                                                             
C 14.76 16.27 22.72                                                             
C 14.76 16.27 35.70                                                             
C 14.76 16.27 48.68                                                             
C 14.76 16.27 61.66                                                             
C 18.79 13.95  9.74                                                             
C 18.79 13.95 22.72                                                             
C 18.79 13.95 35.70                                                             
C 18.79 13.95 48.68                                                             
C 18.79 13.95 61.66                                                             
C 22.81 11.62  9.74                                                             
C 22.81 11.62 22.72                                                             
C 22.81 11.62 35.70                                                             
C 22.81 11.62 48.68                                                             
C 22.81 11.62 61.66                                                             
C 26.84  9.30  9.74                                                             
C 26.84  9.30 22.72                                                             
C 26.84  9.30 35.70                                                             
C 26.84  9.30 48.68                                                             
C 26.84  9.30 61.66                                                             
C 30.86  6.97  9.74                                                             
C 30.86  6.97 22.72                                                             
C 30.86  6.97 35.70                                                             
C 30.86  6.97 48.68                                                             
C 30.86  6.97 61.66                                                             
C 22.81 16.27  9.74                                                             
C 22.81 16.27 22.72                                                             
C 22.81 16.27 35.70                                                             
C 22.81 16.27 48.68                                                             
C 22.81 16.27 61.66                                                             
C 26.84 13.95  9.74                                                             
C 26.84 13.95 22.72                                                             
C 26.84 13.95 35.70                                                             
C 26.84 13.95 48.68                                                             
C 26.84 13.95 61.66                                                             
C 30.86 11.62  9.74                                                             
C 30.86 11.62 22.72                                                             
C 30.86 11.62 35.70                                                             
C 30.86 11.62 48.68                                                             
C 30.86 11.62 61.66                                                             
C 30.86 16.27  9.74                                                             
C 30.86 16.27 22.72                                                             
C 30.86 16.27 35.70                                                             
C 30.86 16.27 48.68                                                             
C 30.86 16.27 61.66                                                             
%ENDBLOCK POSITIONS_ABS                                                         

--------------------------------------------------------------------------------
-------------------------------- END INPUT FILE --------------------------------
--------------------------------------------------------------------------------


 
<<<<<<<<<<<<<<<<<<<<<<<<<<<<<<<<< Full system >>>>>>>>>>>>>>>>>>>>>>>>>>>>>>>>>>
<<<<<<<<<<<<<<<<<<<<<<<<<<< PAW Dataset information >>>>>>>>>>>>>>>>>>>>>>>>>>>
File: ~/pp/paw/c_pbe_abinit.paw; rc = 1.25 bohr; shape type =  3; rshape = 1.25 bohr;
  Atomic number:  6;  ionic charge:  4.000000
    Partial Wave 1: l = 0
    Partial Wave 2: l = 0
    Partial Wave 3: l = 1
    Partial Wave 4: l = 1
  Core charge supplied for Nonlinear Core Corrections
<<<<<<<<<<<<<<<<<<<<<<<<<<<<<<<<<<<<<<< >>>>>>>>>>>>>>>>>>>>>>>>>>>>>>>>>>>>>>>

-------------------------- Atom counting information ---------------------------
Symbol    Natoms    Nngwfs    Nprojs
  C        640      2560      5120
.......   ......    ......    ......
Totals:    640      2560      5120
--------------------------------------------------------------------------------

=============================== PSINC grid sizes ===============================
                      Simulation cell:   63 x  35 x 128
                              FFT-box:   63 x  35 x 117
                                  PPD:    7 x   5 x   1
Grid space d1=  0.511269841270a0 (KE cutoff=  29.06054Eh = 790.77748eV)
Grid space d2=  0.531142857143a0 (KE cutoff=  26.92659Eh = 732.70972eV)
Grid space d3=  0.507031250000a0 (KE cutoff=  29.54844Eh = 804.05395eV)
================================================================================
  
WARNING in cell_grid_distribute:
Average of less than one 23-slab per node, so workload cannot be
equally balanced between nodes.

********************* Fourier parallelisation information **********************
       Coarse grid (whole simulation cell) dimensions:     63    35   128
          Real-space ('12') slabs/node (min max mean):      3     4     3
         Recip-space ('23') slabs/node (min max mean):      0     1     0
********************************************************************************

********************* Fourier parallelisation information **********************
       Double grid (whole simulation cell) dimensions:    126    70   256
          Real-space ('12') slabs/node (min max mean):      6     7     6
         Recip-space ('23') slabs/node (min max mean):      1     2     1
********************************************************************************

Atom SCF Calculation for C  : Z (AE atom) =   6 : Z (PS atom) =   4
Config String: 2s2 2p2
Orbitals (num,occ):  2     2.00 2.00
Orbitals   (num,l):  2        0    1
Real-space Grid (nr,dr,rmax): 1293    0.0069659443    9.0000000000
Spherical Bessel Basis (nsws,lmax,cutoff):   37    2  161.4736382572
Confining potential (l,width,scale):  0    3.0000000000  100.0000000000
Confining potential (l,width,scale):  1    3.0000000000  100.0000000000
  1         -5.4468762137   -1.3311033486    4.5135257941   -1.6400141247
  2         -5.4563922850   -1.3925089082    4.4492606193   -1.6178955363
  3         -5.4591606672   -1.4162756486    4.4239316220   -1.6104942496
  4         -5.4639338613   -1.4240698331    4.4156521757   -1.6083566999
  5         -5.4657436445   -1.4272842389    4.4122438165   -1.6075116305
  6         -5.4665049591   -1.4285796230    4.4108740217   -1.6071800157
  7         -5.4668137280   -1.4291083664    4.4103163978   -1.6070462938
  8         -5.4669397753   -1.4293243321    4.4100892688   -1.6069921003
  9         -5.4669910134   -1.4294128082    4.4099964732   -1.6069700140
 10         -5.4670118707   -1.4294491026    4.4099585094   -1.6069609935
 11         -5.4670203648   -1.4294640137    4.4099429536   -1.6069573023
 12         -5.4670238269   -1.4294701480    4.4099365706   -1.6069557895
 13         -5.4670252393   -1.4294726750    4.4099339478   -1.6069551687
 14         -5.4670258160   -1.4294737172    4.4099328686   -1.6069549136
 15         -5.4670260518   -1.4294741476    4.4099324241   -1.6069548086
 16         -5.4670261483   -1.4294743256    4.4099322407   -1.6069547654
Atom SCF converged after  16 iterations to a total energy of     -5.46702615

Determining parallel strategy ...
... using space-filling curve
... NGWF load balancing: max     64;  min     64;  average     64
... Projector load balancing: max    128;  min    128;  average    128
... done
Calculating Ewald energy ...
              Ewald: real-space energy =    9492.616425
        Ewald: reciprocal-space energy =       0.112306
         Ewald: (sum_charge)**2 Energy =   11225.826865
         Ewald: (sum_charge**2) Energy =     887.479538
                          Ewald Energy =   -2620.577672
Basis initialisation ...... NGWF spheres initialised
... Projector spheres initialised
... NGWF tight boxes initialised
... Projector tight boxes initialised
... Tight-boxes gathered
... NGWF basis size (local,global):     693524  27899680
... PAW projector initialisation
... done

============================= Charge Augmentation ==============================
                           Aug box size:   11 x  11 x  11
================================================================================

========================== Sparse matrix information ===========================
                        Overlap matrix filling:  44.38%
                        Density kernel filling: 100.00%
              NGWF-Proj overlap matrix filling:  12.19%
                    Aug Overlap matrix filling:  47.03%
                    Hamiltonian matrix filling:  47.03%
                  NGWF diagonal matrix filling:   0.16%
                             KS matrix filling: 100.00% 
                           KSKS matrix filling: 100.00% 
================================================================================

Sparse matrix initialisation ... done
NGWF initialisation ...... done
============ Calculation of NGWF S^-1 using Hotelling algorithm ================ 
         Iteration  |  Frobenius norm and Maximum abs value    (of I-S*S_n^-1)   
               1       0.49084970E+02     0.97632417E+00
               2       0.47871404E+02     0.95446650E+00
               3       0.46041168E+02     0.91527999E+00
               4       0.43655341E+02     0.85042881E+00
               5       0.40793168E+02     0.75390981E+00
               6       0.37460681E+02     0.67973128E+00
               7       0.33979567E+02     0.63170994E+00
               8       0.30663905E+02     0.59176806E+00
               9       0.27140456E+02     0.54872633E+00
              10       0.22698552E+02     0.48149139E+00
              11       0.16900401E+02     0.37412687E+00
              12       0.10163179E+02     0.23091660E+00
              13       0.41979636E+01     0.93618313E-01
              14       0.85524069E+00     0.17587507E-01
              15       0.42064256E-01     0.75847405E-03
              16       0.12808973E-03     0.17906862E-05
              17       0.17789889E-08     0.15389801E-10
              18       0.75387718E-13     0.41078252E-14
================================================================================
Calculating core density ...
================================= Core Density =================================
               Core den box size:   21 x  21 x  21
================================================================================
 ... done
Up spin density kernel initialisation ...... done

Writing density kernel to file "3.4344936_GO_manual_4x64graphite.dkn" ... done

>>> Optimising kernel for current NGWFs:

--------------------------- Ensemble-DFT optimisation --------------------------
Running ScaLAPACK on   40 processor(s).

--------------------------------------------------------------------------------
  Iter                              Commutator    Free_energy(A=E-TS)     DeltaA
#    0                          0.000038579663   -3652.16150642295497  -3.65E+03

Step                       =       0.381966011250
Energy                     =   -3652.161473805323
Entropy (-TS)              =      -0.000032617884
Free energy (A=E-TS)       =   -3652.161506422955
Est. 0K Energy 0.5*(E+A)   =   -3652.161490114139
Residual Non-orthogonality =       0.000000000000
Residual N_electrons       =       0.000000000253

Spin          Integrated_Ne            Fermi_level     Delta_Fermi_level
   1      2559.999999998728         0.198502271716              1.99E-01

                           Spin 1          
     Orb      H-eigenvalues     Occupancies
       1 |    -0.5231674849    1.0000000000 | 
                          ------
    1276 |     0.1646539633    0.9999771937 | 
    1277 |     0.1652605588    0.9999723789 | 
    1278 |     0.1652749540    0.9999722531 | 
    1279 |     0.1656921540    0.9999683461 | 
    1280 |     0.1663086663    0.9999615432 | 
                 - Gap at zero temperature -
    1281 |     0.2333260215    0.0000167605 | 
    1282 |     0.2333387945    0.0000166930 | 
    1283 |     0.2333814327    0.0000164698 | 
    1284 |     0.2335511534    0.0000156103 | 
    1285 |     0.2335638089    0.0000155481 | 
                          ------
    2560 |     1.0285461195    0.0000000000 | 

                       |  Abs_value |  Threshold | Converged
     Delta_Free_energy |   3.65E+03 |   1.00E-06 |        No
     Delta_Energy      |   3.65E+03 |   1.00E-04 |        No
     Delta_Entropy     |   3.26E-05 |   1.00E-04 |       Yes
     Commutator        |   3.86E-05 |   1.00E-05 |        No
     Delta_Fermi_level |   1.99E-01 |   1.00E-03 |        No

  Line search of the free energy minimum:
  Step_type        Step             Free_energy   Predicted_free_energy
.   Initial    0.000000    -3652.16150642295497
.    Trial1    0.381966    -3652.16306392145543
.    Trial2    0.618034    -3652.16321920131213
. Quadratic    0.559437    -3652.16323795232529    -3652.16323820055504

--------------------------------------------------------------------------------
  Iter                              Commutator    Free_energy(A=E-TS)     DeltaA
#    1                          0.000021438092   -3652.16323795232529  -1.73E-03

Step                       =       0.559437246859
Energy                     =   -3652.163205795117
Entropy (-TS)              =      -0.000032157671
Free energy (A=E-TS)       =   -3652.163237952325
Est. 0K Energy 0.5*(E+A)   =   -3652.163221873721
Residual Non-orthogonality =       0.000000000000
Residual N_electrons       =       0.000000000463

Spin          Integrated_Ne            Fermi_level     Delta_Fermi_level
   1      2559.999999997674         0.199156401571              6.54E-04

                           Spin 1          
     Orb      H-eigenvalues     Occupancies
       1 |    -0.5241089468    1.0000000000 | 
                          ------
    1276 |     0.1653362762    0.9999769898 | 
    1277 |     0.1658057191    0.9999733132 | 
    1278 |     0.1658103471    0.9999732741 | 
    1279 |     0.1663895640    0.9999679105 | 
    1280 |     0.1668592073    0.9999627808 | 
                 - Gap at zero temperature -
    1281 |     0.2339929325    0.0000166930 | 
    1282 |     0.2339993322    0.0000166593 | 
    1283 |     0.2340534973    0.0000163767 | 
    1284 |     0.2342338163    0.0000154703 | 
    1285 |     0.2342490573    0.0000153960 | 
                          ------
    2560 |     1.0291692451    0.0000000000 | 

                       |  Abs_value |  Threshold | Converged
     Delta_Free_energy |   1.73E-03 |   1.00E-06 |        No
     Delta_Energy      |   1.73E-03 |   1.00E-04 |        No
     Delta_Entropy     |   4.60E-07 |   1.00E-04 |       Yes
     Commutator        |   2.14E-05 |   1.00E-05 |        No
     Delta_Fermi_level |   6.54E-04 |   1.00E-03 |       Yes

  Line search of the free energy minimum:
  Step_type        Step             Free_energy   Predicted_free_energy
.   Initial    0.000000    -3652.16323795232529
.    Trial1    0.559437    -3652.16312880375199
.    Trial2    0.213686    -3652.16362629589821
. Quadratic    0.262959    -3652.16364032807360    -3652.16364042697751

--------------------------------------------------------------------------------
  Iter                              Commutator    Free_energy(A=E-TS)     DeltaA
#    2                          0.000012293088   -3652.16364032807360  -4.02E-04

Step                       =       0.262958658448
Energy                     =   -3652.163608311654
Entropy (-TS)              =      -0.000032016057
Free energy (A=E-TS)       =   -3652.163640328074
Est. 0K Energy 0.5*(E+A)   =   -3652.163624319864
Residual Non-orthogonality =       0.000000000000
Residual N_electrons       =      -0.000000000363

Spin          Integrated_Ne            Fermi_level     Delta_Fermi_level
   1      2560.000000001823         0.199278534843              1.22E-04

                           Spin 1          
     Orb      H-eigenvalues     Occupancies
       1 |    -0.5243098776    1.0000000000 | 
                          ------
    1276 |     0.1654185323    0.9999772778 | 
    1277 |     0.1659315984    0.9999732816 | 
    1278 |     0.1659407794    0.9999732040 | 
    1279 |     0.1664665473    0.9999683647 | 
    1280 |     0.1669843048    0.9999627459 | 
                 - Gap at zero temperature -
    1281 |     0.2341410098    0.0000165568 | 
    1282 |     0.2341519898    0.0000164995 | 
    1283 |     0.2342009236    0.0000162465 | 
    1284 |     0.2343927241    0.0000152917 | 
    1285 |     0.2344077636    0.0000152193 | 
                          ------
    2560 |     1.0292874184    0.0000000000 | 

                       |  Abs_value |  Threshold | Converged
     Delta_Free_energy |   4.02E-04 |   1.00E-06 |        No
     Delta_Energy      |   4.03E-04 |   1.00E-04 |        No
     Delta_Entropy     |   1.42E-07 |   1.00E-04 |       Yes
     Commutator        |   1.23E-05 |   1.00E-05 |        No
     Delta_Fermi_level |   1.22E-04 |   1.00E-03 |       Yes

  Line search of the free energy minimum:
  Step_type        Step             Free_energy   Predicted_free_energy
.   Initial    0.000000    -3652.16364032807360
.    Trial1    0.262959    -3652.16376557878448
.    Trial2    0.544483    -3652.16372603912669
. Quadratic    0.341726    -3652.16377258796911    -3652.16377260675699

--------------------------------------------------------------------------------
  Iter                              Commutator    Free_energy(A=E-TS)     DeltaA
#    3                          0.000008569264   -3652.16377258796911  -1.32E-04

Step                       =       0.341726454944
Energy                     =   -3652.163740698933
Entropy (-TS)              =      -0.000031889416
Free energy (A=E-TS)       =   -3652.163772587969
Est. 0K Energy 0.5*(E+A)   =   -3652.163756643451
Residual Non-orthogonality =       0.000000000000
Residual N_electrons       =       0.000000000379

Spin          Integrated_Ne            Fermi_level     Delta_Fermi_level
   1      2559.999999998098         0.199397163794              1.19E-04

                           Spin 1          
     Orb      H-eigenvalues     Occupancies
       1 |    -0.5244944838    1.0000000000 | 
                          ------
    1276 |     0.1655169089    0.9999774226 | 
    1277 |     0.1660410852    0.9999733586 | 
    1278 |     0.1660545223    0.9999732453 | 
    1279 |     0.1665617956    0.9999685974 | 
    1280 |     0.1670949091    0.9999628402 | 
                 - Gap at zero temperature -
    1281 |     0.2342746372    0.0000164785 | 
    1282 |     0.2342898907    0.0000163994 | 
    1283 |     0.2343354098    0.0000161653 | 
    1284 |     0.2345317941    0.0000151933 | 
    1285 |     0.2345466464    0.0000151222 | 
                          ------
    2560 |     1.0294183063    0.0000000000 | 

                       |  Abs_value |  Threshold | Converged
     Delta_Free_energy |   1.32E-04 |   1.00E-06 |        No
     Delta_Energy      |   1.32E-04 |   1.00E-04 |        No
     Delta_Entropy     |   1.27E-07 |   1.00E-04 |       Yes
     Commutator        |   8.57E-06 |   1.00E-05 |       Yes
     Delta_Fermi_level |   1.19E-04 |   1.00E-03 |       Yes

  Line search of the free energy minimum:
  Step_type        Step             Free_energy   Predicted_free_energy
.   Initial    0.000000    -3652.16377258796911
.    Trial1    0.341726    -3652.16382685281678
.    Trial2    0.593165    -3652.16374091027819
. Quadratic    0.264943    -3652.16383183972130    -3652.16383182853633

--------------------------------------------------------------------------------
  Iter                              Commutator    Free_energy(A=E-TS)     DeltaA
#    4                          0.000005805423   -3652.16383183972130  -5.93E-05

Step                       =       0.264942570092
Energy                     =   -3652.163800011076
Entropy (-TS)              =      -0.000031828462
Free energy (A=E-TS)       =   -3652.163831839721
Est. 0K Energy 0.5*(E+A)   =   -3652.163815925399
Residual Non-orthogonality =       0.000000000000
Residual N_electrons       =      -0.000000000183

Spin          Integrated_Ne            Fermi_level     Delta_Fermi_level
   1      2560.000000000916         0.199458035520              6.09E-05

                           Spin 1          
[...]
 C   275 -- C   555       -0.10      5.37000
 C   274 -- C   554       -0.10      5.37000
 C   273 -- C   553       -0.10      5.37000
 C   272 -- C   552       -0.10      5.37000
 C   271 -- C   551       -0.10      5.37000
 C   270 -- C   550       -0.10      5.37000
 C   269 -- C   549       -0.10      5.37000
 C   268 -- C   548       -0.10      5.37000
 C   267 -- C   547       -0.10      5.37000
 C   266 -- C   546       -0.10      5.37000
 C   130 -- C   465       -0.09      5.37000
 C   129 -- C   464       -0.09      5.37000
 C   128 -- C   463       -0.09      5.37000
 C   127 -- C   462       -0.09      5.37000
 C   126 -- C   461       -0.09      5.37000
 C   240 -- C   525       -0.10      5.37000
 C   239 -- C   524       -0.10      5.37000
 C   238 -- C   523       -0.10      5.37000
 C   237 -- C   522       -0.10      5.37000
 C   236 -- C   521       -0.10      5.37000
 C    23 -- C   478       -0.09      5.37202
 C    49 -- C   469       -0.09      5.37202
 C    48 -- C   468       -0.09      5.37202
 C    47 -- C   467       -0.09      5.37202
 C    22 -- C   477       -0.09      5.37202
 C    46 -- C   466       -0.09      5.37202
 C    21 -- C   476       -0.09      5.37202
 C    25 -- C   480       -0.09      5.37202
 C    24 -- C   479       -0.09      5.37202
 C    50 -- C   470       -0.09      5.37202
 C    24 -- C   449       -0.09      5.37202
 C     6 -- C   416       -0.09      5.37202
 C    23 -- C   448       -0.09      5.37202
 C    22 -- C   447       -0.09      5.37202
 C    10 -- C   470       -0.09      5.37202
 C     5 -- C   450       -0.09      5.37202
 C    21 -- C   446       -0.09      5.37202
 C    10 -- C   420       -0.09      5.37202
 C     9 -- C   469       -0.09      5.37202
 C     9 -- C   419       -0.09      5.37202
 C     8 -- C   468       -0.09      5.37202
 C     4 -- C   449       -0.09      5.37202
 C     8 -- C   418       -0.09      5.37202
 C   285 -- C   580       -0.09      5.37202
 C   284 -- C   579       -0.09      5.37202
 C   283 -- C   578       -0.09      5.37202
 C   282 -- C   577       -0.09      5.37202
 C   281 -- C   576       -0.09      5.37202
 C     2 -- C   447       -0.09      5.37202
 C     7 -- C   467       -0.09      5.37202
 C   260 -- C   605       -0.09      5.37202
 C   259 -- C   604       -0.09      5.37202
 C   258 -- C   603       -0.09      5.37202
 C   257 -- C   602       -0.09      5.37202
 C   256 -- C   601       -0.09      5.37202
 C     7 -- C   417       -0.09      5.37202
 C     1 -- C   446       -0.09      5.37202
 C     6 -- C   466       -0.09      5.37202
 C    25 -- C   450       -0.09      5.37202
 C     3 -- C   448       -0.09      5.37202
 C   219 -- C   569       -0.09      5.37202
 C   218 -- C   568       -0.09      5.37202
 C   217 -- C   567       -0.09      5.37202
 C   216 -- C   566       -0.09      5.37202
 C   250 -- C   540       -0.09      5.37202
 C   249 -- C   539       -0.09      5.37202
 C   248 -- C   538       -0.09      5.37202
 C   247 -- C   537       -0.09      5.37202
 C   246 -- C   536       -0.09      5.37202
 C   220 -- C   570       -0.09      5.37202
 C   205 -- C   550       -0.09      5.37202
 C   204 -- C   549       -0.09      5.37202
 C   203 -- C   548       -0.09      5.37202
 C   202 -- C   547       -0.09      5.37202
 C   201 -- C   546       -0.09      5.37202
 C    95 -- C   365       -0.09      5.37202
 C    94 -- C   364       -0.09      5.37202
 C    93 -- C   363       -0.09      5.37202
 C    92 -- C   362       -0.09      5.37202
 C    91 -- C   361       -0.09      5.37202
 C    65 -- C   395       -0.09      5.37202
 C    64 -- C   394       -0.09      5.37202
 C    63 -- C   393       -0.09      5.37202
 C    30 -- C   355       -0.09      5.37202
 C    62 -- C   392       -0.09      5.37202
 C    61 -- C   391       -0.09      5.37202
 C    29 -- C   354       -0.09      5.37202
 C   260 -- C   550       -0.09      5.37202
 C   259 -- C   549       -0.09      5.37202
 C    28 -- C   353       -0.09      5.37202
 C   258 -- C   548       -0.09      5.37202
 C   257 -- C   547       -0.09      5.37202
 C   256 -- C   546       -0.09      5.37202
 C    27 -- C   352       -0.09      5.37202
 C    26 -- C   351       -0.09      5.37202
 C    55 -- C   335       -0.09      5.37202
 C    54 -- C   334       -0.09      5.37202
 C    53 -- C   333       -0.09      5.37202
 C   230 -- C   580       -0.09      5.37202
 C   230 -- C   525       -0.09      5.37202
 C   229 -- C   579       -0.09      5.37202
 C   229 -- C   524       -0.09      5.37202
 C   228 -- C   578       -0.09      5.37202
 C    52 -- C   332       -0.09      5.37202
 C   228 -- C   523       -0.09      5.37202
 C   227 -- C   577       -0.09      5.37202
 C   227 -- C   522       -0.09      5.37202
 C   226 -- C   576       -0.09      5.37202
 C   226 -- C   521       -0.09      5.37202
 C    51 -- C   331       -0.09      5.37202
 C   220 -- C   515       -0.09      5.37202
 C   219 -- C   514       -0.09      5.37202
 C   218 -- C   513       -0.09      5.37202
 C   217 -- C   512       -0.09      5.37202
 C   216 -- C   511       -0.09      5.37202
 C   195 -- C   540       -0.09      5.37202
 C   195 -- C   500       -0.09      5.37202
 C   194 -- C   539       -0.09      5.37202
 C   194 -- C   499       -0.09      5.37202
 C   193 -- C   538       -0.09      5.37202
 C   193 -- C   498       -0.09      5.37202
 C   192 -- C   537       -0.09      5.37202
 C   192 -- C   497       -0.09      5.37202
 C   191 -- C   536       -0.09      5.37202
 C   191 -- C   496       -0.09      5.37202
 C   180 -- C   515       -0.09      5.37202
 C   179 -- C   514       -0.09      5.37202
 C   178 -- C   513       -0.09      5.37202
 C   177 -- C   512       -0.09      5.37202
 C   176 -- C   511       -0.09      5.37202
 C   150 -- C   440       -0.09      5.37202
 C   149 -- C   439       -0.09      5.37202
 C   148 -- C   438       -0.09      5.37202
 C   147 -- C   437       -0.09      5.37202
 C   146 -- C   436       -0.09      5.37202
 C   135 -- C   460       -0.09      5.37202
 C   134 -- C   459       -0.09      5.37202
 C   133 -- C   458       -0.09      5.37202
 C   132 -- C   457       -0.09      5.37202
 C   131 -- C   456       -0.09      5.37202
 C    11 -- C   331       -0.09      5.37202
 C    95 -- C   425       -0.09      5.37202
 C    94 -- C   424       -0.09      5.37202
 C    93 -- C   423       -0.09      5.37202
 C    92 -- C   422       -0.09      5.37202
 C    91 -- C   421       -0.09      5.37202
 C    85 -- C   355       -0.09      5.37202
 C    40 -- C   365       -0.09      5.37202
 C    84 -- C   354       -0.09      5.37202
 C    83 -- C   353       -0.09      5.37202
 C    82 -- C   352       -0.09      5.37202
 C    39 -- C   364       -0.09      5.37202
 C    81 -- C   351       -0.09      5.37202
 C    38 -- C   363       -0.09      5.37202
 C    37 -- C   362       -0.09      5.37202
 C    36 -- C   361       -0.09      5.37202
 C    15 -- C   335       -0.09      5.37202
 C    65 -- C   345       -0.09      5.37202
 C    64 -- C   344       -0.09      5.37202
 C    63 -- C   343       -0.09      5.37202
 C    30 -- C   325       -0.09      5.37202
 C    62 -- C   342       -0.09      5.37202
 C    14 -- C   334       -0.09      5.37202
 C    61 -- C   341       -0.09      5.37202
 C    29 -- C   324       -0.09      5.37202
 C    28 -- C   323       -0.09      5.37202
 C    13 -- C   333       -0.09      5.37202
 C    27 -- C   322       -0.09      5.37202
 C   120 -- C   395       -0.09      5.37202
 C    55 -- C   385       -0.09      5.37202
 C   119 -- C   394       -0.09      5.37202
 C   118 -- C   393       -0.09      5.37202
 C   117 -- C   392       -0.09      5.37202
 C    54 -- C   384       -0.09      5.37202
 C    26 -- C   321       -0.09      5.37202
 C   116 -- C   391       -0.09      5.37202
 C    53 -- C   383       -0.09      5.37202
 C    12 -- C   332       -0.09      5.37202
 C    52 -- C   382       -0.09      5.37202
 C    51 -- C   381       -0.09      5.37202
 C   106 -- C   436       -0.09      5.37202
 C   106 -- C   376       -0.09      5.37202
 C    80 -- C   410       -0.09      5.37202
 C    79 -- C   409       -0.09      5.37202
 C    78 -- C   408       -0.09      5.37202
 C    77 -- C   407       -0.09      5.37202
 C    76 -- C   406       -0.09      5.37202
 C   135 -- C   410       -0.09      5.37202
 C   134 -- C   409       -0.09      5.37202
 C   133 -- C   408       -0.09      5.37202
 C   132 -- C   407       -0.09      5.37202
 C   131 -- C   406       -0.09      5.37202
 C   110 -- C   440       -0.09      5.37202
 C   110 -- C   380       -0.09      5.37202
 C   109 -- C   439       -0.09      5.37202
 C   109 -- C   379       -0.09      5.37202
 C   108 -- C   438       -0.09      5.37202
 C   108 -- C   378       -0.09      5.37202
 C   107 -- C   437       -0.09      5.37202
 C   107 -- C   377       -0.09      5.37202
 C   215 -- C   635       -0.09      5.38000
 C   214 -- C   634       -0.09      5.38000
 C   213 -- C   633       -0.09      5.38000
 C   212 -- C   632       -0.09      5.38000
 C   211 -- C   631       -0.09      5.38000
 C   190 -- C   620       -0.09      5.38000
 C   189 -- C   619       -0.09      5.38000
 C   188 -- C   618       -0.09      5.38000
 C   187 -- C   617       -0.09      5.38000
 C   186 -- C   616       -0.09      5.38000
 C   175 -- C   595       -0.09      5.38000
 C   174 -- C   594       -0.09      5.38000
 C   173 -- C   593       -0.09      5.38000
 C   172 -- C   592       -0.09      5.38000
 C   171 -- C   591       -0.09      5.38000
 C   245 -- C   640       -0.09      5.38000
 C   244 -- C   639       -0.09      5.38000
 C   243 -- C   638       -0.09      5.38000
 C   242 -- C   637       -0.09      5.38000
 C   241 -- C   636       -0.09      5.38000
==================================================


=================== Orbital energy and occupancy information ===================

      Total number of orbitals:    2560
        Occupancy sum (kernel):    1279.999999999
   Occupancy sum (eigenvalues):    1279.999999999
                 HOMO-LUMO gap:       0.063769293 Eh
                 Mid-gap level:       0.247096739 Eh

                        Orbital | Energy (Eh) | Occupancy
                            1    -0.475845730   1.0000000
                        .......   ...........   .........
                         1271     0.209801782   0.9999886
                         1272     0.209814168   0.9999886
                         1273     0.210272271   0.9999868
                         1274     0.210284706   0.9999868
                         1275     0.213758997   0.9999604
                         1276     0.213760572   0.9999604
                         1277     0.214217804   0.9999542
                         1278     0.214219388   0.9999542
                         1279     0.214762426   0.9999456
                         1280     0.215212092   0.9999373
                        ....... -- gap at 0K -- .........
                         1281     0.278981385   0.0000286
                         1282     0.278992403   0.0000285
                         1283     0.279232195   0.0000264
                         1284     0.279243187   0.0000263
                         1285     0.279663716   0.0000231
                         1286     0.279667103   0.0000231
                         1287     0.279928730   0.0000213
                         1288     0.279932335   0.0000212
                         1289     0.280160676   0.0000198
                         1290     0.280248805   0.0000191
                        .......   ...........   .........
                         2560     1.134005407   0.0000000

================================================================================

===================== Writing canonical molecular orbitals =====================
| Orbital  Energy (eV)  Norm     |
| HOMO      5.85621901  1.000000 | Writing "3.4344936_GO_manual_4x64graphite_HOMO.cube" ... done
Writing "3.4344936_GO_manual_4x64graphite_HOMO.dx" ... done
| LUMO      7.59146978  1.000000 | Writing "3.4344936_GO_manual_4x64graphite_LUMO.cube" ... done
Writing "3.4344936_GO_manual_4x64graphite_LUMO.dx" ... done
================================================================================
 
===================== Density of States (DOS) calculation ======================
Writing "3.4344936_GO_manual_4x64graphite_DOS.txt" ...  done
================================================================================
 
Writing bands to file "3.4344936_GO_manual_4x64graphite.val_bands" ... done
 
================ Projected Density of States (pDOS) calculation ================
 
Constructing AM resolved functions  ...... done
Writing NGWF plot files in formats: CUBE DX ...  done
 
Performing overlap integrals ...  done
 
Computing pDOS weights ...  done
 
All bands spilling parameter =   3.66 %
Occupancy-weighted spilling parameter =   0.87 %
 
 => Outputting data for OptaDOS <=
 
Writing pDOS weights to file "3.4344936_GO_manual_4x64graphite.val_pdos_bin" ... done
 
Writing band gradients to file "3.4344936_GO_manual_4x64graphite.val_dome_bin" ... done
 
Writing Castep output cell file to "3.4344936_GO_manual_4x64graphite-out.cell" ... done
 
 => Computing Gaussian smeared pDOS <= 
Writing "3.4344936_GO_manual_4x64graphite_PDOS.txt" ...  done
 
 => Computing Occupancy-weighted Gaussian smeared pDOS <= 
Writing "3.4344936_GO_manual_4x64graphite_occ_PDOS.txt" ...  done
  => Band centres: 
 S band centre of group 1:  -13.837122 eV
 P band centre of group 1:   -6.728140 eV
  Band centres done. <=
  => Integrated number of electrons in each AM band: 
 S num electrons of group 1:  574.235265
 P num electrons of group 1: 1963.488427
  Integrated number of electrons done. <=
================================================================================

------------------------------ TIMING INFORMATION ------------------------------
AVERAGE TIME:    3814.571s on     40 node(s)                                    
TOTAL TIME:      3814.573s on     40 node(s)                                    
================= AVERAGE TIMINGS FROM ALL NODES (CUMULATIVE) ==================
|| TAG                                    #calls    cpu time   %total  Gflops ||
|| work_imbalance                       :     1        0.00s   0.000%  ------ ||
|| paw_tcore_hartree_on_grid            :     1        0.00s   0.000%  ------ ||
|| paw_tcore_density                    :     1        0.01s   0.000%  ------ ||
|| paw_sphere_density_on_grid           :     1        0.01s   0.000%  ------ ||
|| sparse_set_to_garbage                :   171        0.03s   0.001%  ------ ||
|| paw_dij_hartree                      :   347        0.04s   0.001%  ------ ||
|| pseudo_make_structure_factor         :     1        0.05s   0.001%  ------ ||
|| basis_extract_function_from_box      :  1920        0.08s   0.002%  ------ ||
|| paw_species_calc_proj_prec_mat       :     1        0.12s   0.003%  ------ ||
|| paw_dataset_init                     :     1        0.16s   0.004%  ------ ||
|| density_init_guess_real              :     1        0.17s   0.004%  ------ ||
|| ngwfs_initialise_from_radial         :     2        0.67s   0.017%  ------ ||
|| restart_kernel_write                 :    16        0.90s   0.024%  ------ ||
|| sparse_init                          :     1        0.92s   0.024%  ------ ||
|| dense_normal_eigensolve              :     1        1.01s   0.026%  ------ ||
|| hartree_on_grid                      :   260        1.29s   0.034%  ------ ||
|| ewald_calculate_energy               :     1        2.80s   0.073%  ------ ||
|| projectors_init_fftbox_recip         :   151        2.87s   0.075%  ------ ||
|| fourier_apply_box_pair               :  2848        4.70s   0.123% 561.787 ||
|| basis_copy_function_to_box           : 24704        5.35s   0.140%  ------ ||
|| augmentation_screen_dij              :   265        5.71s   0.150%  ------ ||
|| sw_init                              :     1        6.73s   0.176%  ------ ||
|| sparse_embed_hotelling_invert_embed  :    29        7.92s   0.208%  ------ ||
|| ngwf_gradient_coeffs                 :    15       10.24s   0.268%  ------ ||
|| fourier_apply_cell_backward          :  8031       13.98s   0.366%  69.176 ||
|| cell_grid_extract_box_real           : 10396       15.07s   0.395%  ------ ||
|| fourier_apply_cell_forward           :  7512       15.83s   0.415%  57.124 ||
|| sparse_trace                         :  3140       18.06s   0.473%  ------ ||
|| cell_grid_deposit_box_real           : 33456       19.91s   0.522%  ------ ||
|| paw_dij_xc                           :   347       23.44s   0.615%  ------ ||
|| aug_nonlocal_mat                     :   332       34.06s   0.893%  ------ ||
|| density_fftbox_deposit_to_cell       : 16640       40.52s   1.062%  ------ ||
|| augmentation_density_on_grid         :   260       43.69s   1.145%  ------ ||
|| hamiltonian_energy_components        :     3       47.18s   1.237%  ------ ||
|| eigenstates_pdos                     :     1       52.98s   1.389%  ------ ||
|| function_ops_brappd_ketppd           :    60       55.69s   1.460%  ------ ||
|| eigenstates_calculate                :     1       57.08s   1.496%  ------ ||
|| nlxc_vdw_energy                      :   518       63.56s   1.666%  ------ ||
|| projectors_func_ovlp_box             :    30       65.42s   1.715%  ------ ||
|| xc_energy_potential                  :   259       73.55s   1.928%  ------ ||
|| integrals_kinetic                    :    29       97.39s   2.553%  ------ ||
|| properties_calculate                 :     1      102.05s   2.675%  ------ ||
|| dense_eigensolve                     :   227      106.96s   2.804%  ------ ||
|| sparse_product                       :  3187      122.74s   3.218%  ------ ||
|| potential_apply_to_ngwf_batch        :   324      124.81s   3.272%  ------ ||
|| restart_ngwfs_tightbox_output        :    14      178.80s   4.687%  ------ ||
|| basis_dot_function_with_box          : 8.142M     220.73s   5.787%  ------ ||
|| fourier_apply_box                    : 77952      241.22s   6.324% 980.655 ||
|| edft_diag_ngwf_ham                   :   226      245.74s   6.442%  ------ ||
|| projectors_gradient_batch            :    60      268.48s   7.038%  ------ ||
|| integrals_locpot_mat_els_batch       :   324      280.32s   7.349%  ------ ||
|| density_fftbox_interpolate_multiply  : 16640      322.62s   8.458%  ------ ||
|| projectors_grad_precond_batch        :    60      372.60s   9.768%  ------ ||
|| density_batch_interp_deposit         :  1040      400.97s  10.512%  ------ ||
|| integrals_locpot_dbl_grid            :    81      406.72s  10.662%  ------ ||
|| edft_apply_smearing_operator         :   226      483.32s  12.670%  ------ ||
|| basis_add_function_to_box            : 23.27M     608.61s  15.955%  ------ ||
|| ngwf_gradient_build_batch            :    60      686.21s  17.989%  ------ ||
|| density_batch_row_sums               :  1040      807.83s  21.177%  ------ ||
|| ngwf_gradient_batch                  :    60      923.71s  24.215%  ------ ||
|| ngwf_gradient_lnv                    :    15      947.37s  24.835%  ------ ||
|| density_on_dbl_grid                  :   260     1219.94s  31.981%  ------ ||
|| hamiltonian_lhxc_calculate           :   255     1315.29s  34.481%  ------ ||
|| edft_calculate                       :    15     2189.83s  57.407%  ------ ||
|| ngwf_cg_optimise                     :     1     3687.29s  96.663%  ------ ||
|| total_time                           :     1     3814.57s 100.000%  ------ ||
================================================================================
Overhead of generating timer report: 
- 0 ms averaging over threads,
- 5 ms ensuring consistency across MPI ranks,
- 0 ms printing in order.

Job completed: 25-02-2020 15:18 (-0000)

