 +---------------------------------------------------------------+
 |                                                               |
 |        ####### #     # ####### ####### ####### ######         |
 |        #     # ##    # #          #    #       #     #        |
 |        #     # # #   # #          #    #       #     #        |
 |        #     # #  #  # #####      #    #####   ######         |
 |        #     # #   # # #          #    #       #              |
 |        #     # #    ## #          #    #       #              |
 |        ####### #     # #######    #    ####### #              |
 |                                                               |
 |        Linear-Scaling Ab Initio Total Energy Program          |
 |                                                               |
 |          Release for academic collaborators of ODG            |
 |                                             Version 5.3.2.12  |
 |                                                               |
 +---------------------------------------------------------------+
 |                                                               |
 |  Authors:                                                     |
 |  Jacek Dziedzic, Peter D. Haynes, Nicholas D. M. Hine,        |
 |  Arash. A. Mostofi, Mike C. Payne and Chris-Kriton Skylaris   |
 |                                                               |
 |  Contributors:                                                |
 |  J. Aarons, L. Andrinopoulos, P. W. Avraam, R. A. Bell,       |
 |  A. Bhandari, G. A. Bramley, R. J. Charlton, S. J. Clark,     |
 |  R. J. Clements, G. C. Constantinescu, F. Corsetti,           |
 |  N. Corsini, O. Dieguez, S. M. M. Dubois, K. K. B. Duff,      |
 |  J. M. Escartin, A. Greco, H. Helal, Q. O. Hill, L. P. Lee,   |
 |  J.-H. Li, E. B. Linscott, G. Moynihan, D. D. O`Regan,        |
 |  O. K. Okan, M. J. S. Phipps, C. J. Pickard,                  |
 |  J. C. A. Prentice, M. I. J. Probert, L. E. Ratcliff,         |
 |  M. Robinson, A. Ruiz Serrano, J. S. Spencer, E. W. Tait,     |
 |  G. Teobaldi, D. Turban, V. Vitale, K. A. Wilkinson,          |
 |  C. Weber, J. C. Womack, N. Yeung and T. J. Zuehlsdorff       |
 |                                                               |
 |                                   Copyright (c) 2004-2020     |
 |                                                               |
 |  Please cite:                                                 |
 |  "Introducing ONETEP: Linear-scaling density functional       |
 |   simulations on parallel computers".                         |
 |   C.-K. Skylaris, P. D. Haynes, A. A. Mostofi, M. C. Payne.   |
 |   J. Chem. Phys. 122 084119 (2005).                           |
 |                                                               |
 |          in all publications arising from your use of ONETEP. |
 |                                                               |
 +---------------------------------------------------------------+
 |                                                               |
 |   ONETEP is based on developments described in the following  |
 |   publications:                                               |
 |                                                               |
 |  "Nonorthogonal generalized Wannier function pseudopotential  |
 |   plane-wave method".                                         |
 |   C.-K. Skylaris, A. A. Mostofi, P. D. Haynes, O. Dieguez,    |
 |   M. C. Payne.                                                |
 |   Phys. Rev. B 66 035119 (2002).                              |
 |                                                               |
 |  "Preconditioned iterative minimization for linear-scaling    |
 |   electronic structure calculations".                         |
 |   A. A. Mostofi, P. D. Haynes, C.-K. Skylaris, M. C. Payne.   |
 |   J. Chem. Phys. 119(17), pp.8842-8848 (2003).                |
 |                                                               |
 |  "Total-energy calculations on a real space grid with         |
 |   localized functions and a plane-wave basis".                |
 |   A. A. Mostofi, C.-K. Skylaris, P. D. Haynes, M. C. Payne.   |
 |   Comput. Phys. Commun. 147, pp.788-802 (2002).               |
 |                                                               |
 |  "Accurate kinetic energy evaluation in electronic structure  |
 |   calculations with localized functions on real space grids"  |
 |   C.-K. Skylaris, A. A. Mostofi, P. D. Haynes, C. J. Pickard, |
 |   M. C. Payne.                                                |
 |   Comput. Phys. Commun. 140, pp.315-322 (2001).               |
 |                                                               |
 |  "Accurate ionic forces and geometry optimization in linear-  |
 |   scaling density-functional theory with local orbitals"      |
 |   N. D. M. Hine, M. Robinson, P. D. Haynes, C.-K. Skylaris,   |
 |   M. C. Payne, and A. A. Mostofi.                             |
 |   Phys. Rev. B 83 195102 (2011).                              |
 |                                                               |
 +---------------------------------------------------------------+

Job started: 25-02-2020 22:52 (-0000)
 
Reading parameters from file "2.9783632_GO_manual_4x64graphite.dat" ...

WARNING: "cutoff_energy" not specified, but "psinc_spacing" specified.
         Using the latter to set the KE cutoff energy to  732.32021eV,
         thus *overriding* the default.

... done

If your calculation crashes here, before "Checking processes and threads..."
is displayed, then your stack size is insufficient.
If so, use "ulimit -s unlimited" at runtime.
You can disable this check with "check_stack_size F".

Checking processes and threads...
   Determining the default number of threads...
      No default threads set at compilation time: defaulting to 1.
      OpenMP library call suggests 4 threads.
      Hybrid MPI-OpenMP compilation detected.
      Number of MPI processes > 1.
      OMP_NUM_THREADS environment variable present and
      its value matches the one obtained from the OpenMP library call.
      Using this value as default.
      Default threads: 4
      Default applies to threads_max and threads_num_fftboxes.
      Settings in the input file override this default.
   ... done

   Running with 40 MPI processes.
   There are 10 MPI processes running on the same node as the root process.
   Each MPI process is using: 
               1 threads for simulation cell FFTs.
               1 threads for parallel FFT box operations.
               4 threads for loops over batched FFT box operations.
               4 threads in other parallel regions.
... done

Basic input checks...
Resetting ngwf_cg_rotate to TRUE for EDFT calculations
... done

Reading geometry and species blocks from file "2.9783632_GO_manual_4x64graphite.dat" ...
    
  PSINC grid spacing along a1 set to   0.511215680000a0 from input file.
  PSINC grid spacing along a2 set to   0.531284090000a0 from input file.
  PSINC grid spacing along a3 set to   0.507054260000a0 from input file.
  PSINC grid spacing along a1 set to   0.511215680000a0 from input file.
  PSINC grid spacing along a2 set to   0.531284090000a0 from input file.
  PSINC grid spacing along a3 set to   0.507054260000a0 from input file.
  Number of PPD points along a3 set to 1.  This is 
  the default value, it may have been provided also in the input file.
... done
 Writing xyz coordinates to file "2.9783632_GO_manual_4x64graphite.xyz" ... done


--------------------------------------------------------------------------------
---------------------------------- INPUT FILE ----------------------------------
--------------------------------------------------------------------------------

task : singlepoint                                                              
do_properties : true                                                            
dx_format T                                                                     
edft T                                                                          
output_detail VERBOSE                                                           
write_xyz T                                                                     
xc_functional OPTB88                                                            
PSINC_SPACING 0.51121568 0.53128409 0.50705426                                  
paw T                                                                           
pdos_max_l = 2                                                                  
dos_smear  0.1 eV                                                               
popn_calculate T                                                                
PDOS_PSEUDOATOMIC T                                                             
PDOS_REDUCE_SWS F                                                               
PDOS_CONSTRUCT_BASIS F                                                          
PDOS_LOWDIN T                                                                   
PDOS_ORTH_ATOM_BLOCKS F                                                         
PDOS_LCAO_OPTIMIZE F                                                            
pdos_optados_output T                                                           
homo_plot 0                                                                     
lumo_plot 0                                                                     
homo_dens_plot -1                                                               
lumo_dens_plot -1                                                               
%BLOCK SPECIES                                                                  
C C 6 4 9.0                                                                     
%ENDBLOCK SPECIES                                                               
%BLOCK SPECIES_POT                                                              
C "~/pp/paw/c_pbe_abinit.paw"                                                   
%ENDBLOCK SPECIES_POT                                                           
%BLOCK SPECIES_ATOMIC_SET                                                       
C "SOLVE conf=2s2 2p2"                                                          
%ENDBLOCK SPECIES_ATOMIC_SET                                                    
%BLOCK LATTICE_CART                                                             
32.21  0.00  0.00                                                               
0.00 18.59  0.00                                                                
0.00  0.00 56.28                                                                
%ENDBLOCK LATTICE_CART                                                          
%BLOCK POSITIONS_ABS                                                            
C  0.00  0.00  2.81                                                             
C  0.00  0.00 14.07                                                             
C  0.00  0.00 25.33                                                             
C  0.00  0.00 36.58                                                             
C  0.00  0.00 47.84                                                             
C  0.00  4.65  2.81                                                             
C  0.00  4.65 14.07                                                             
C  0.00  4.65 25.33                                                             
C  0.00  4.65 36.58                                                             
C  0.00  4.65 47.84                                                             
C  4.03  2.32  2.81                                                             
C  4.03  2.32 14.07                                                             
C  4.03  2.32 25.33                                                             
C  4.03  2.32 36.58                                                             
C  4.03  2.32 47.84                                                             
C  8.05  0.00  2.81                                                             
C  8.05  0.00 14.07                                                             
C  8.05  0.00 25.33                                                             
C  8.05  0.00 36.58                                                             
C  8.05  0.00 47.84                                                             
C  0.00  9.30  2.81                                                             
C  0.00  9.30 14.07                                                             
C  0.00  9.30 25.33                                                             
C  0.00  9.30 36.58                                                             
C  0.00  9.30 47.84                                                             
C  4.03  6.97  2.81                                                             
C  4.03  6.97 14.07                                                             
C  4.03  6.97 25.33                                                             
C  4.03  6.97 36.58                                                             
C  4.03  6.97 47.84                                                             
C  8.05  4.65  2.81                                                             
C  8.05  4.65 14.07                                                             
C  8.05  4.65 25.33                                                             
C  8.05  4.65 36.58                                                             
C  8.05  4.65 47.84                                                             
C 12.08  2.32  2.81                                                             
C 12.08  2.32 14.07                                                             
C 12.08  2.32 25.33                                                             
C 12.08  2.32 36.58                                                             
C 12.08  2.32 47.84                                                             
C 16.10  0.00  2.81                                                             
C 16.10  0.00 14.07                                                             
C 16.10  0.00 25.33                                                             
C 16.10  0.00 36.58                                                             
C 16.10  0.00 47.84                                                             
C  0.00 13.95  2.81                                                             
C  0.00 13.95 14.07                                                             
C  0.00 13.95 25.33                                                             
C  0.00 13.95 36.58                                                             
C  0.00 13.95 47.84                                                             
C  4.03 11.62  2.81                                                             
C  4.03 11.62 14.07                                                             
C  4.03 11.62 25.33                                                             
C  4.03 11.62 36.58                                                             
C  4.03 11.62 47.84                                                             
C  8.05  9.30  2.81                                                             
C  8.05  9.30 14.07                                                             
C  8.05  9.30 25.33                                                             
C  8.05  9.30 36.58                                                             
C  8.05  9.30 47.84                                                             
C 12.08  6.97  2.81                                                             
C 12.08  6.97 14.07                                                             
C 12.08  6.97 25.33                                                             
C 12.08  6.97 36.58                                                             
C 12.08  6.97 47.84                                                             
C 16.10  4.65  2.81                                                             
C 16.10  4.65 14.07                                                             
C 16.10  4.65 25.33                                                             
C 16.10  4.65 36.58                                                             
C 16.10  4.65 47.84                                                             
C 20.13  2.32  2.81                                                             
C 20.13  2.32 14.07                                                             
C 20.13  2.32 25.33                                                             
C 20.13  2.32 36.58                                                             
C 20.13  2.32 47.84                                                             
C 24.16  0.00  2.81                                                             
C 24.16  0.00 14.07                                                             
C 24.16  0.00 25.33                                                             
C 24.16  0.00 36.58                                                             
C 24.16  0.00 47.84                                                             
C  4.03 16.27  2.81                                                             
C  4.03 16.27 14.07                                                             
C  4.03 16.27 25.33                                                             
C  4.03 16.27 36.58                                                             
C  4.03 16.27 47.84                                                             
C  8.05 13.95  2.81                                                             
C  8.05 13.95 14.07                                                             
C  8.05 13.95 25.33                                                             
C  8.05 13.95 36.58                                                             
C  8.05 13.95 47.84                                                             
C 12.08 11.62  2.81                                                             
C 12.08 11.62 14.07                                                             
C 12.08 11.62 25.33                                                             
C 12.08 11.62 36.58                                                             
C 12.08 11.62 47.84                                                             
C 16.10  9.30  2.81                                                             
C 16.10  9.30 14.07                                                             
C 16.10  9.30 25.33                                                             
C 16.10  9.30 36.58                                                             
C 16.10  9.30 47.84                                                             
C 20.13  6.97  2.81                                                             
C 20.13  6.97 14.07                                                             
C 20.13  6.97 25.33                                                             
C 20.13  6.97 36.58                                                             
C 20.13  6.97 47.84                                                             
C 24.16  4.65  2.81                                                             
C 24.16  4.65 14.07                                                             
C 24.16  4.65 25.33                                                             
C 24.16  4.65 36.58                                                             
C 24.16  4.65 47.84                                                             
C 28.18  2.32  2.81                                                             
C 28.18  2.32 14.07                                                             
C 28.18  2.32 25.33                                                             
C 28.18  2.32 36.58                                                             
C 28.18  2.32 47.84                                                             
C 12.08 16.27  2.81                                                             
C 12.08 16.27 14.07                                                             
C 12.08 16.27 25.33                                                             
C 12.08 16.27 36.58                                                             
C 12.08 16.27 47.84                                                             
C 16.10 13.95  2.81                                                             
C 16.10 13.95 14.07                                                             
C 16.10 13.95 25.33                                                             
C 16.10 13.95 36.58                                                             
C 16.10 13.95 47.84                                                             
C 20.13 11.62  2.81                                                             
C 20.13 11.62 14.07                                                             
C 20.13 11.62 25.33                                                             
C 20.13 11.62 36.58                                                             
C 20.13 11.62 47.84                                                             
C 24.16  9.30  2.81                                                             
C 24.16  9.30 14.07                                                             
C 24.16  9.30 25.33                                                             
C 24.16  9.30 36.58                                                             
C 24.16  9.30 47.84                                                             
C 28.18  6.97  2.81                                                             
C 28.18  6.97 14.07                                                             
C 28.18  6.97 25.33                                                             
C 28.18  6.97 36.58                                                             
C 28.18  6.97 47.84                                                             
C 20.13 16.27  2.81                                                             
C 20.13 16.27 14.07                                                             
C 20.13 16.27 25.33                                                             
C 20.13 16.27 36.58                                                             
C 20.13 16.27 47.84                                                             
C 24.16 13.95  2.81                                                             
C 24.16 13.95 14.07                                                             
C 24.16 13.95 25.33                                                             
C 24.16 13.95 36.58                                                             
C 24.16 13.95 47.84                                                             
C 28.18 11.62  2.81                                                             
C 28.18 11.62 14.07                                                             
C 28.18 11.62 25.33                                                             
C 28.18 11.62 36.58                                                             
C 28.18 11.62 47.84                                                             
C 28.18 16.27  2.81                                                             
C 28.18 16.27 14.07                                                             
C 28.18 16.27 25.33                                                             
C 28.18 16.27 36.58                                                             
C 28.18 16.27 47.84                                                             
C  0.00  0.00  8.44                                                             
C  0.00  0.00 19.70                                                             
C  0.00  0.00 30.96                                                             
C  0.00  0.00 42.21                                                             
C  0.00  0.00 53.47                                                             
C  0.00  4.65  8.44                                                             
C  0.00  4.65 19.70                                                             
C  0.00  4.65 30.96                                                             
C  0.00  4.65 42.21                                                             
C  0.00  4.65 53.47                                                             
C  4.03  2.32  8.44                                                             
C  4.03  2.32 19.70                                                             
C  4.03  2.32 30.96                                                             
C  4.03  2.32 42.21                                                             
C  4.03  2.32 53.47                                                             
C  8.05  0.00  8.44                                                             
C  8.05  0.00 19.70                                                             
C  8.05  0.00 30.96                                                             
C  8.05  0.00 42.21                                                             
C  8.05  0.00 53.47                                                             
C  0.00  9.30  8.44                                                             
C  0.00  9.30 19.70                                                             
C  0.00  9.30 30.96                                                             
C  0.00  9.30 42.21                                                             
C  0.00  9.30 53.47                                                             
C  4.03  6.97  8.44                                                             
C  4.03  6.97 19.70                                                             
C  4.03  6.97 30.96                                                             
C  4.03  6.97 42.21                                                             
C  4.03  6.97 53.47                                                             
C  8.05  4.65  8.44                                                             
C  8.05  4.65 19.70                                                             
C  8.05  4.65 30.96                                                             
C  8.05  4.65 42.21                                                             
C  8.05  4.65 53.47                                                             
C 12.08  2.32  8.44                                                             
C 12.08  2.32 19.70                                                             
C 12.08  2.32 30.96                                                             
C 12.08  2.32 42.21                                                             
C 12.08  2.32 53.47                                                             
C 16.10  0.00  8.44                                                             
C 16.10  0.00 19.70                                                             
C 16.10  0.00 30.96                                                             
C 16.10  0.00 42.21                                                             
C 16.10  0.00 53.47                                                             
C  0.00 13.95  8.44                                                             
C  0.00 13.95 19.70                                                             
C  0.00 13.95 30.96                                                             
C  0.00 13.95 42.21                                                             
C  0.00 13.95 53.47                                                             
C  4.03 11.62  8.44                                                             
C  4.03 11.62 19.70                                                             
C  4.03 11.62 30.96                                                             
C  4.03 11.62 42.21                                                             
C  4.03 11.62 53.47                                                             
C  8.05  9.30  8.44                                                             
C  8.05  9.30 19.70                                                             
C  8.05  9.30 30.96                                                             
C  8.05  9.30 42.21                                                             
C  8.05  9.30 53.47                                                             
C 12.08  6.97  8.44                                                             
C 12.08  6.97 19.70                                                             
C 12.08  6.97 30.96                                                             
C 12.08  6.97 42.21                                                             
C 12.08  6.97 53.47                                                             
C 16.10  4.65  8.44                                                             
C 16.10  4.65 19.70                                                             
C 16.10  4.65 30.96                                                             
C 16.10  4.65 42.21                                                             
C 16.10  4.65 53.47                                                             
C 20.13  2.32  8.44                                                             
C 20.13  2.32 19.70                                                             
C 20.13  2.32 30.96                                                             
C 20.13  2.32 42.21                                                             
C 20.13  2.32 53.47                                                             
C 24.16  0.00  8.44                                                             
C 24.16  0.00 19.70                                                             
C 24.16  0.00 30.96                                                             
C 24.16  0.00 42.21                                                             
C 24.16  0.00 53.47                                                             
C  4.03 16.27  8.44                                                             
C  4.03 16.27 19.70                                                             
C  4.03 16.27 30.96                                                             
C  4.03 16.27 42.21                                                             
C  4.03 16.27 53.47                                                             
C  8.05 13.95  8.44                                                             
C  8.05 13.95 19.70                                                             
C  8.05 13.95 30.96                                                             
C  8.05 13.95 42.21                                                             
C  8.05 13.95 53.47                                                             
C 12.08 11.62  8.44                                                             
C 12.08 11.62 19.70                                                             
C 12.08 11.62 30.96                                                             
C 12.08 11.62 42.21                                                             
C 12.08 11.62 53.47                                                             
C 16.10  9.30  8.44                                                             
C 16.10  9.30 19.70                                                             
C 16.10  9.30 30.96                                                             
C 16.10  9.30 42.21                                                             
C 16.10  9.30 53.47                                                             
C 20.13  6.97  8.44                                                             
C 20.13  6.97 19.70                                                             
C 20.13  6.97 30.96                                                             
C 20.13  6.97 42.21                                                             
C 20.13  6.97 53.47                                                             
C 24.16  4.65  8.44                                                             
C 24.16  4.65 19.70                                                             
C 24.16  4.65 30.96                                                             
C 24.16  4.65 42.21                                                             
C 24.16  4.65 53.47                                                             
C 28.18  2.32  8.44                                                             
C 28.18  2.32 19.70                                                             
C 28.18  2.32 30.96                                                             
C 28.18  2.32 42.21                                                             
C 28.18  2.32 53.47                                                             
C 12.08 16.27  8.44                                                             
C 12.08 16.27 19.70                                                             
C 12.08 16.27 30.96                                                             
C 12.08 16.27 42.21                                                             
C 12.08 16.27 53.47                                                             
C 16.10 13.95  8.44                                                             
C 16.10 13.95 19.70                                                             
C 16.10 13.95 30.96                                                             
C 16.10 13.95 42.21                                                             
C 16.10 13.95 53.47                                                             
C 20.13 11.62  8.44                                                             
C 20.13 11.62 19.70                                                             
C 20.13 11.62 30.96                                                             
C 20.13 11.62 42.21                                                             
C 20.13 11.62 53.47                                                             
C 24.16  9.30  8.44                                                             
C 24.16  9.30 19.70                                                             
C 24.16  9.30 30.96                                                             
C 24.16  9.30 42.21                                                             
C 24.16  9.30 53.47                                                             
C 28.18  6.97  8.44                                                             
C 28.18  6.97 19.70                                                             
C 28.18  6.97 30.96                                                             
C 28.18  6.97 42.21                                                             
C 28.18  6.97 53.47                                                             
C 20.13 16.27  8.44                                                             
C 20.13 16.27 19.70                                                             
C 20.13 16.27 30.96                                                             
C 20.13 16.27 42.21                                                             
C 20.13 16.27 53.47                                                             
C 24.16 13.95  8.44                                                             
C 24.16 13.95 19.70                                                             
C 24.16 13.95 30.96                                                             
C 24.16 13.95 42.21                                                             
C 24.16 13.95 53.47                                                             
C 28.18 11.62  8.44                                                             
C 28.18 11.62 19.70                                                             
C 28.18 11.62 30.96                                                             
C 28.18 11.62 42.21                                                             
C 28.18 11.62 53.47                                                             
C 28.18 16.27  8.44                                                             
C 28.18 16.27 19.70                                                             
C 28.18 16.27 30.96                                                             
C 28.18 16.27 42.21                                                             
C 28.18 16.27 53.47                                                             
C  1.34  2.32  2.81                                                             
C  1.34  2.32 14.07                                                             
C  1.34  2.32 25.33                                                             
C  1.34  2.32 36.58                                                             
C  1.34  2.32 47.84                                                             
C  5.37  0.00  2.81                                                             
C  5.37  0.00 14.07                                                             
C  5.37  0.00 25.33                                                             
C  5.37  0.00 36.58                                                             
C  5.37  0.00 47.84                                                             
C  1.34  6.97  2.81                                                             
C  1.34  6.97 14.07                                                             
C  1.34  6.97 25.33                                                             
C  1.34  6.97 36.58                                                             
C  1.34  6.97 47.84                                                             
C  5.37  4.65  2.81                                                             
C  5.37  4.65 14.07                                                             
C  5.37  4.65 25.33                                                             
C  5.37  4.65 36.58                                                             
C  5.37  4.65 47.84                                                             
C  9.39  2.32  2.81                                                             
C  9.39  2.32 14.07                                                             
C  9.39  2.32 25.33                                                             
C  9.39  2.32 36.58                                                             
C  9.39  2.32 47.84                                                             
C 13.42  0.00  2.81                                                             
C 13.42  0.00 14.07                                                             
C 13.42  0.00 25.33                                                             
C 13.42  0.00 36.58                                                             
C 13.42  0.00 47.84                                                             
C  1.34 11.62  2.81                                                             
C  1.34 11.62 14.07                                                             
C  1.34 11.62 25.33                                                             
C  1.34 11.62 36.58                                                             
C  1.34 11.62 47.84                                                             
C  5.37  9.30  2.81                                                             
C  5.37  9.30 14.07                                                             
C  5.37  9.30 25.33                                                             
C  5.37  9.30 36.58                                                             
C  5.37  9.30 47.84                                                             
C  9.39  6.97  2.81                                                             
C  9.39  6.97 14.07                                                             
C  9.39  6.97 25.33                                                             
C  9.39  6.97 36.58                                                             
C  9.39  6.97 47.84                                                             
C 13.42  4.65  2.81                                                             
C 13.42  4.65 14.07                                                             
C 13.42  4.65 25.33                                                             
C 13.42  4.65 36.58                                                             
C 13.42  4.65 47.84                                                             
C 17.45  2.32  2.81                                                             
C 17.45  2.32 14.07                                                             
C 17.45  2.32 25.33                                                             
C 17.45  2.32 36.58                                                             
C 17.45  2.32 47.84                                                             
C 21.47  0.00  2.81                                                             
C 21.47  0.00 14.07                                                             
C 21.47  0.00 25.33                                                             
C 21.47  0.00 36.58                                                             
C 21.47  0.00 47.84                                                             
C  1.34 16.27  2.81                                                             
C  1.34 16.27 14.07                                                             
C  1.34 16.27 25.33                                                             
C  1.34 16.27 36.58                                                             
C  1.34 16.27 47.84                                                             
C  5.37 13.95  2.81                                                             
C  5.37 13.95 14.07                                                             
C  5.37 13.95 25.33                                                             
C  5.37 13.95 36.58                                                             
C  5.37 13.95 47.84                                                             
C  9.39 11.62  2.81                                                             
C  9.39 11.62 14.07                                                             
C  9.39 11.62 25.33                                                             
C  9.39 11.62 36.58                                                             
C  9.39 11.62 47.84                                                             
C 13.42  9.30  2.81                                                             
C 13.42  9.30 14.07                                                             
C 13.42  9.30 25.33                                                             
C 13.42  9.30 36.58                                                             
C 13.42  9.30 47.84                                                             
C 17.45  6.97  2.81                                                             
C 17.45  6.97 14.07                                                             
C 17.45  6.97 25.33                                                             
C 17.45  6.97 36.58                                                             
C 17.45  6.97 47.84                                                             
C 21.47  4.65  2.81                                                             
C 21.47  4.65 14.07                                                             
C 21.47  4.65 25.33                                                             
C 21.47  4.65 36.58                                                             
C 21.47  4.65 47.84                                                             
C 25.50  2.32  2.81                                                             
C 25.50  2.32 14.07                                                             
C 25.50  2.32 25.33                                                             
C 25.50  2.32 36.58                                                             
C 25.50  2.32 47.84                                                             
C 29.52  0.00  2.81                                                             
C 29.52  0.00 14.07                                                             
C 29.52  0.00 25.33                                                             
C 29.52  0.00 36.58                                                             
C 29.52  0.00 47.84                                                             
C  9.39 16.27  2.81                                                             
C  9.39 16.27 14.07                                                             
C  9.39 16.27 25.33                                                             
C  9.39 16.27 36.58                                                             
C  9.39 16.27 47.84                                                             
C 13.42 13.95  2.81                                                             
C 13.42 13.95 14.07                                                             
C 13.42 13.95 25.33                                                             
C 13.42 13.95 36.58                                                             
C 13.42 13.95 47.84                                                             
C 17.45 11.62  2.81                                                             
C 17.45 11.62 14.07                                                             
C 17.45 11.62 25.33                                                             
C 17.45 11.62 36.58                                                             
C 17.45 11.62 47.84                                                             
C 21.47  9.30  2.81                                                             
C 21.47  9.30 14.07                                                             
C 21.47  9.30 25.33                                                             
C 21.47  9.30 36.58                                                             
C 21.47  9.30 47.84                                                             
C 25.50  6.97  2.81                                                             
C 25.50  6.97 14.07                                                             
C 25.50  6.97 25.33                                                             
C 25.50  6.97 36.58                                                             
C 25.50  6.97 47.84                                                             
C 29.52  4.65  2.81                                                             
C 29.52  4.65 14.07                                                             
C 29.52  4.65 25.33                                                             
C 29.52  4.65 36.58                                                             
C 29.52  4.65 47.84                                                             
C 17.45 16.27  2.81                                                             
C 17.45 16.27 14.07                                                             
C 17.45 16.27 25.33                                                             
C 17.45 16.27 36.58                                                             
C 17.45 16.27 47.84                                                             
C 21.47 13.95  2.81                                                             
C 21.47 13.95 14.07                                                             
C 21.47 13.95 25.33                                                             
C 21.47 13.95 36.58                                                             
C 21.47 13.95 47.84                                                             
C 25.50 11.62  2.81                                                             
C 25.50 11.62 14.07                                                             
C 25.50 11.62 25.33                                                             
C 25.50 11.62 36.58                                                             
C 25.50 11.62 47.84                                                             
C 29.52  9.30  2.81                                                             
C 29.52  9.30 14.07                                                             
C 29.52  9.30 25.33                                                             
C 29.52  9.30 36.58                                                             
C 29.52  9.30 47.84                                                             
C 25.50 16.27  2.81                                                             
C 25.50 16.27 14.07                                                             
C 25.50 16.27 25.33                                                             
C 25.50 16.27 36.58                                                             
C 25.50 16.27 47.84                                                             
C 29.52 13.95  2.81                                                             
C 29.52 13.95 14.07                                                             
C 29.52 13.95 25.33                                                             
C 29.52 13.95 36.58                                                             
C 29.52 13.95 47.84                                                             
C  2.68  0.00  8.44                                                             
C  2.68  0.00 19.70                                                             
C  2.68  0.00 30.96                                                             
C  2.68  0.00 42.21                                                             
C  2.68  0.00 53.47                                                             
C  2.68  4.65  8.44                                                             
C  2.68  4.65 19.70                                                             
C  2.68  4.65 30.96                                                             
C  2.68  4.65 42.21                                                             
C  2.68  4.65 53.47                                                             
C  6.71  2.32  8.44                                                             
C  6.71  2.32 19.70                                                             
C  6.71  2.32 30.96                                                             
C  6.71  2.32 42.21                                                             
C  6.71  2.32 53.47                                                             
C 10.74  0.00  8.44                                                             
C 10.74  0.00 19.70                                                             
C 10.74  0.00 30.96                                                             
C 10.74  0.00 42.21                                                             
C 10.74  0.00 53.47                                                             
C  2.68  9.30  8.44                                                             
C  2.68  9.30 19.70                                                             
C  2.68  9.30 30.96                                                             
C  2.68  9.30 42.21                                                             
C  2.68  9.30 53.47                                                             
C  6.71  6.97  8.44                                                             
C  6.71  6.97 19.70                                                             
C  6.71  6.97 30.96                                                             
C  6.71  6.97 42.21                                                             
C  6.71  6.97 53.47                                                             
C 10.74  4.65  8.44                                                             
C 10.74  4.65 19.70                                                             
C 10.74  4.65 30.96                                                             
C 10.74  4.65 42.21                                                             
C 10.74  4.65 53.47                                                             
C 14.76  2.32  8.44                                                             
C 14.76  2.32 19.70                                                             
C 14.76  2.32 30.96                                                             
C 14.76  2.32 42.21                                                             
C 14.76  2.32 53.47                                                             
C 18.79  0.00  8.44                                                             
C 18.79  0.00 19.70                                                             
C 18.79  0.00 30.96                                                             
C 18.79  0.00 42.21                                                             
C 18.79  0.00 53.47                                                             
C  2.68 13.95  8.44                                                             
C  2.68 13.95 19.70                                                             
C  2.68 13.95 30.96                                                             
C  2.68 13.95 42.21                                                             
C  2.68 13.95 53.47                                                             
C  6.71 11.62  8.44                                                             
C  6.71 11.62 19.70                                                             
C  6.71 11.62 30.96                                                             
C  6.71 11.62 42.21                                                             
C  6.71 11.62 53.47                                                             
C 10.74  9.30  8.44                                                             
C 10.74  9.30 19.70                                                             
C 10.74  9.30 30.96                                                             
C 10.74  9.30 42.21                                                             
C 10.74  9.30 53.47                                                             
C 14.76  6.97  8.44                                                             
C 14.76  6.97 19.70                                                             
C 14.76  6.97 30.96                                                             
C 14.76  6.97 42.21                                                             
C 14.76  6.97 53.47                                                             
C 18.79  4.65  8.44                                                             
C 18.79  4.65 19.70                                                             
C 18.79  4.65 30.96                                                             
C 18.79  4.65 42.21                                                             
C 18.79  4.65 53.47                                                             
C 22.81  2.32  8.44                                                             
C 22.81  2.32 19.70                                                             
C 22.81  2.32 30.96                                                             
C 22.81  2.32 42.21                                                             
C 22.81  2.32 53.47                                                             
C 26.84  0.00  8.44                                                             
C 26.84  0.00 19.70                                                             
C 26.84  0.00 30.96                                                             
C 26.84  0.00 42.21                                                             
C 26.84  0.00 53.47                                                             
C  6.71 16.27  8.44                                                             
C  6.71 16.27 19.70                                                             
C  6.71 16.27 30.96                                                             
C  6.71 16.27 42.21                                                             
C  6.71 16.27 53.47                                                             
C 10.74 13.95  8.44                                                             
C 10.74 13.95 19.70                                                             
C 10.74 13.95 30.96                                                             
C 10.74 13.95 42.21                                                             
C 10.74 13.95 53.47                                                             
C 14.76 11.62  8.44                                                             
C 14.76 11.62 19.70                                                             
C 14.76 11.62 30.96                                                             
C 14.76 11.62 42.21                                                             
C 14.76 11.62 53.47                                                             
C 18.79  9.30  8.44                                                             
C 18.79  9.30 19.70                                                             
C 18.79  9.30 30.96                                                             
C 18.79  9.30 42.21                                                             
C 18.79  9.30 53.47                                                             
C 22.81  6.97  8.44                                                             
C 22.81  6.97 19.70                                                             
C 22.81  6.97 30.96                                                             
C 22.81  6.97 42.21                                                             
C 22.81  6.97 53.47                                                             
C 26.84  4.65  8.44                                                             
C 26.84  4.65 19.70                                                             
C 26.84  4.65 30.96                                                             
C 26.84  4.65 42.21                                                             
C 26.84  4.65 53.47                                                             
C 30.86  2.32  8.44                                                             
C 30.86  2.32 19.70                                                             
C 30.86  2.32 30.96                                                             
C 30.86  2.32 42.21                                                             
C 30.86  2.32 53.47                                                             
C 14.76 16.27  8.44                                                             
C 14.76 16.27 19.70                                                             
C 14.76 16.27 30.96                                                             
C 14.76 16.27 42.21                                                             
C 14.76 16.27 53.47                                                             
C 18.79 13.95  8.44                                                             
C 18.79 13.95 19.70                                                             
C 18.79 13.95 30.96                                                             
C 18.79 13.95 42.21                                                             
C 18.79 13.95 53.47                                                             
C 22.81 11.62  8.44                                                             
C 22.81 11.62 19.70                                                             
C 22.81 11.62 30.96                                                             
C 22.81 11.62 42.21                                                             
C 22.81 11.62 53.47                                                             
C 26.84  9.30  8.44                                                             
C 26.84  9.30 19.70                                                             
C 26.84  9.30 30.96                                                             
C 26.84  9.30 42.21                                                             
C 26.84  9.30 53.47                                                             
C 30.86  6.97  8.44                                                             
C 30.86  6.97 19.70                                                             
C 30.86  6.97 30.96                                                             
C 30.86  6.97 42.21                                                             
C 30.86  6.97 53.47                                                             
C 22.81 16.27  8.44                                                             
C 22.81 16.27 19.70                                                             
C 22.81 16.27 30.96                                                             
C 22.81 16.27 42.21                                                             
C 22.81 16.27 53.47                                                             
C 26.84 13.95  8.44                                                             
C 26.84 13.95 19.70                                                             
C 26.84 13.95 30.96                                                             
C 26.84 13.95 42.21                                                             
C 26.84 13.95 53.47                                                             
C 30.86 11.62  8.44                                                             
C 30.86 11.62 19.70                                                             
C 30.86 11.62 30.96                                                             
C 30.86 11.62 42.21                                                             
C 30.86 11.62 53.47                                                             
C 30.86 16.27  8.44                                                             
C 30.86 16.27 19.70                                                             
C 30.86 16.27 30.96                                                             
C 30.86 16.27 42.21                                                             
C 30.86 16.27 53.47                                                             
%ENDBLOCK POSITIONS_ABS                                                         

--------------------------------------------------------------------------------
-------------------------------- END INPUT FILE --------------------------------
--------------------------------------------------------------------------------


 
<<<<<<<<<<<<<<<<<<<<<<<<<<<<<<<<< Full system >>>>>>>>>>>>>>>>>>>>>>>>>>>>>>>>>>
<<<<<<<<<<<<<<<<<<<<<<<<<<< PAW Dataset information >>>>>>>>>>>>>>>>>>>>>>>>>>>
File: ~/pp/paw/c_pbe_abinit.paw; rc = 1.25 bohr; shape type =  3; rshape = 1.25 bohr;
  Atomic number:  6;  ionic charge:  4.000000
    Partial Wave 1: l = 0
    Partial Wave 2: l = 0
    Partial Wave 3: l = 1
    Partial Wave 4: l = 1
  Core charge supplied for Nonlinear Core Corrections
<<<<<<<<<<<<<<<<<<<<<<<<<<<<<<<<<<<<<<< >>>>>>>>>>>>>>>>>>>>>>>>>>>>>>>>>>>>>>>

-------------------------- Atom counting information ---------------------------
Symbol    Natoms    Nngwfs    Nprojs
  C        640      2560      5120
.......   ......    ......    ......
Totals:    640      2560      5120
--------------------------------------------------------------------------------

=============================== PSINC grid sizes ===============================
                      Simulation cell:   63 x  35 x 111
                              FFT-box:   63 x  35 x 111
                                  PPD:    7 x   5 x   1
Grid space d1=  0.511269841270a0 (KE cutoff=  29.06054Eh = 790.77748eV)
Grid space d2=  0.531142857143a0 (KE cutoff=  26.92659Eh = 732.70972eV)
Grid space d3=  0.507027027027a0 (KE cutoff=  29.54893Eh = 804.06734eV)
================================================================================
  
WARNING in cell_grid_distribute:
Average of less than one 23-slab per node, so workload cannot be
equally balanced between nodes.

********************* Fourier parallelisation information **********************
       Coarse grid (whole simulation cell) dimensions:     63    35   111
          Real-space ('12') slabs/node (min max mean):      2     3     2
         Recip-space ('23') slabs/node (min max mean):      0     1     0
********************************************************************************

********************* Fourier parallelisation information **********************
       Double grid (whole simulation cell) dimensions:    126    70   222
          Real-space ('12') slabs/node (min max mean):      5     6     5
         Recip-space ('23') slabs/node (min max mean):      1     2     1
********************************************************************************

Atom SCF Calculation for C  : Z (AE atom) =   6 : Z (PS atom) =   4
Config String: 2s2 2p2
Orbitals (num,occ):  2     2.00 2.00
Orbitals   (num,l):  2        0    1
Real-space Grid (nr,dr,rmax): 1293    0.0069659443    9.0000000000
Spherical Bessel Basis (nsws,lmax,cutoff):   37    2  161.4736382572
Confining potential (l,width,scale):  0    3.0000000000  100.0000000000
Confining potential (l,width,scale):  1    3.0000000000  100.0000000000
  1         -5.4468762137   -1.3311033486    4.5135257941   -1.6400141247
  2         -5.4563922850   -1.3925089082    4.4492606193   -1.6178955363
  3         -5.4591606672   -1.4162756486    4.4239316220   -1.6104942496
  4         -5.4639338613   -1.4240698331    4.4156521757   -1.6083566999
  5         -5.4657436445   -1.4272842389    4.4122438165   -1.6075116305
  6         -5.4665049591   -1.4285796230    4.4108740217   -1.6071800157
  7         -5.4668137280   -1.4291083664    4.4103163978   -1.6070462938
  8         -5.4669397753   -1.4293243321    4.4100892688   -1.6069921003
  9         -5.4669910134   -1.4294128082    4.4099964732   -1.6069700140
 10         -5.4670118707   -1.4294491026    4.4099585094   -1.6069609935
 11         -5.4670203648   -1.4294640137    4.4099429536   -1.6069573023
 12         -5.4670238269   -1.4294701480    4.4099365706   -1.6069557895
 13         -5.4670252393   -1.4294726750    4.4099339478   -1.6069551687
 14         -5.4670258160   -1.4294737172    4.4099328686   -1.6069549136
 15         -5.4670260518   -1.4294741476    4.4099324241   -1.6069548086
 16         -5.4670261483   -1.4294743256    4.4099322407   -1.6069547654
Atom SCF converged after  16 iterations to a total energy of     -5.46702615

Determining parallel strategy ...
... using space-filling curve
... NGWF load balancing: max     64;  min     64;  average     64
... Projector load balancing: max    128;  min    128;  average    128
... done
Calculating Ewald energy ...
              Ewald: real-space energy =    9587.663868
        Ewald: reciprocal-space energy =       0.020809
         Ewald: (sum_charge)**2 Energy =   11771.953624
         Ewald: (sum_charge**2) Energy =     930.654649
                          Ewald Energy =   -3114.923596
Basis initialisation ...... NGWF spheres initialised
... Projector spheres initialised
... NGWF tight boxes initialised
... Projector tight boxes initialised
... Tight-boxes gathered
... NGWF basis size (local,global):     695476  27897184
... PAW projector initialisation
... done

============================= Charge Augmentation ==============================
                           Aug box size:   11 x  11 x  11
================================================================================

========================== Sparse matrix information ===========================
                        Overlap matrix filling:  49.84%
                        Density kernel filling: 100.00%
              NGWF-Proj overlap matrix filling:  13.12%
                    Aug Overlap matrix filling:  51.72%
                    Hamiltonian matrix filling:  51.72%
                  NGWF diagonal matrix filling:   0.16%
                             KS matrix filling: 100.00% 
                           KSKS matrix filling: 100.00% 
================================================================================

Sparse matrix initialisation ... done
NGWF initialisation ...... done
============ Calculation of NGWF S^-1 using Hotelling algorithm ================ 
         Iteration  |  Frobenius norm and Maximum abs value    (of I-S*S_n^-1)   
               1       0.49358555E+02     0.97982100E+00
               2       0.48338740E+02     0.96135686E+00
               3       0.46752886E+02     0.92861038E+00
               4       0.44606360E+02     0.87512898E+00
               5       0.41959963E+02     0.79553937E+00
               6       0.38774938E+02     0.70097394E+00
               7       0.35247967E+02     0.64816812E+00
               8       0.31820966E+02     0.60466851E+00
               9       0.28407403E+02     0.56415599E+00
              10       0.24322927E+02     0.50718493E+00
              11       0.18984092E+02     0.41425632E+00
              12       0.12426426E+02     0.28061063E+00
              13       0.59605203E+01     0.13462560E+00
              14       0.16226336E+01     0.34476493E-01
              15       0.14329962E+00     0.27129541E-02
              16       0.13585683E-02     0.21056422E-04
              17       0.17543950E-06     0.17795988E-08
              18       0.90729483E-13     0.51070259E-14
================================================================================
Calculating core density ...
================================= Core Density =================================
               Core den box size:   21 x  21 x  21
================================================================================
 ... done
Up spin density kernel initialisation ...... done

Writing density kernel to file "2.9783632_GO_manual_4x64graphite.dkn" ... done

>>> Optimising kernel for current NGWFs:

--------------------------- Ensemble-DFT optimisation --------------------------
Running ScaLAPACK on   40 processor(s).

--------------------------------------------------------------------------------
  Iter                              Commutator    Free_energy(A=E-TS)     DeltaA
#    0                          0.000073046036   -3655.06057090537479  -3.66E+03

Step                       =       0.381966011250
Energy                     =   -3655.060520607180
Entropy (-TS)              =      -0.000050298189
Free energy (A=E-TS)       =   -3655.060570905375
Est. 0K Energy 0.5*(E+A)   =   -3655.060545756278
Residual Non-orthogonality =       0.000000000000
Residual N_electrons       =      -0.000000000005

Spin          Integrated_Ne            Fermi_level     Delta_Fermi_level
   1      2560.000000000019         0.271484042400              2.71E-01

                           Spin 1          
     Orb      H-eigenvalues     Occupancies
       1 |    -0.4544778960    1.0000000000 | 
                          ------
    1276 |     0.2397432206    0.9999556325 | 
    1277 |     0.2401875966    0.9999489491 | 
    1278 |     0.2403179356    0.9999468042 | 
    1279 |     0.2403323486    0.9999465616 | 
    1280 |     0.2407529319    0.9999389721 | 
                 - Gap at zero temperature -
    1281 |     0.3039221852    0.0000355991 | 
    1282 |     0.3039570255    0.0000352096 | 
    1283 |     0.3041563967    0.0000330613 | 
    1284 |     0.3041645366    0.0000329764 | 
    1285 |     0.3041912230    0.0000326997 | 
                          ------
    2560 |     1.1024521264    0.0000000000 | 

                       |  Abs_value |  Threshold | Converged
     Delta_Free_energy |   3.66E+03 |   1.00E-06 |        No
     Delta_Energy      |   3.66E+03 |   1.00E-04 |        No
     Delta_Entropy     |   5.03E-05 |   1.00E-04 |       Yes
     Commutator        |   7.30E-05 |   1.00E-05 |        No
     Delta_Fermi_level |   2.71E-01 |   1.00E-03 |        No

  Line search of the free energy minimum:
  Step_type        Step             Free_energy   Predicted_free_energy
.   Initial    0.000000    -3655.06057090537479
.    Trial1    0.381966    -3655.06586098669550
.    Trial2    0.618034    -3655.06430550754203
. Quadratic    0.400378    -3655.06587132120831    -3655.06587219755875

--------------------------------------------------------------------------------
  Iter                              Commutator    Free_energy(A=E-TS)     DeltaA
#    1                          0.000026086931   -3655.06587132120831  -5.30E-03

Step                       =       0.400377918182
Energy                     =   -3655.065822462256
Entropy (-TS)              =      -0.000048859277
Free energy (A=E-TS)       =   -3655.065871321208
Est. 0K Energy 0.5*(E+A)   =   -3655.065846891732
Residual Non-orthogonality =       0.000000000000
Residual N_electrons       =       0.000000000325

Spin          Integrated_Ne            Fermi_level     Delta_Fermi_level
   1      2559.999999998818         0.274659061369              3.18E-03

                           Spin 1          
     Orb      H-eigenvalues     Occupancies
       1 |    -0.4522077175    1.0000000000 | 
                          ------
    1276 |     0.2429037008    0.9999558357 | 
    1277 |     0.2433423152    0.9999492753 | 
    1278 |     0.2433630584    0.9999489420 | 
    1279 |     0.2433797215    0.9999486726 | 
    1280 |     0.2438161190    0.9999410894 | 
                 - Gap at zero temperature -
    1281 |     0.3072061601    0.0000343951 | 
    1282 |     0.3072674118    0.0000337363 | 
    1283 |     0.3074162006    0.0000321879 | 
    1284 |     0.3074461496    0.0000318850 | 
    1285 |     0.3075314330    0.0000310378 | 
                          ------
    2560 |     1.1081816662    0.0000000000 | 

                       |  Abs_value |  Threshold | Converged
     Delta_Free_energy |   5.30E-03 |   1.00E-06 |        No
     Delta_Energy      |   5.30E-03 |   1.00E-04 |        No
     Delta_Entropy     |   1.44E-06 |   1.00E-04 |       Yes
     Commutator        |   2.61E-05 |   1.00E-05 |        No
     Delta_Fermi_level |   3.18E-03 |   1.00E-03 |        No

  Line search of the free energy minimum:
  Step_type        Step             Free_energy   Predicted_free_energy
.   Initial    0.000000    -3655.06587132120831
.    Trial1    0.400378    -3655.06643173657721
.    Trial2    0.629413    -3655.06590179405475
. Quadratic    0.318810    -3655.06647152706364    -3655.06647099143720

--------------------------------------------------------------------------------
  Iter                              Commutator    Free_energy(A=E-TS)     DeltaA
#    2                          0.000019381514   -3655.06647152706364  -6.00E-04

Step                       =       0.318809547129
Energy                     =   -3655.066423727519
Entropy (-TS)              =      -0.000047799203
Free energy (A=E-TS)       =   -3655.066471527064
Est. 0K Energy 0.5*(E+A)   =   -3655.066447627291
Residual Non-orthogonality =       0.000000000000
Residual N_electrons       =      -0.000000000342

Spin          Integrated_Ne            Fermi_level     Delta_Fermi_level
   1      2560.000000001240         0.276032764371              1.37E-03

                           Spin 1          
     Orb      H-eigenvalues     Occupancies
       1 |    -0.4511305501    1.0000000000 | 
                          ------
    1276 |     0.2441928555    0.9999569992 | 
    1277 |     0.2446320633    0.9999506023 | 
    1278 |     0.2446536086    0.9999502651 | 
    1279 |     0.2446926052    0.9999496489 | 
    1280 |     0.2451086733    0.9999425797 | 
                 - Gap at zero temperature -
    1281 |     0.3086561243    0.0000335768 | 
    1282 |     0.3087189366    0.0000329174 | 
    1283 |     0.3088757385    0.0000313272 | 
    1284 |     0.3089086472    0.0000310034 | 
    1285 |     0.3089748454    0.0000303620 | 
                          ------
    2560 |     1.1108861212    0.0000000000 | 

                       |  Abs_value |  Threshold | Converged
     Delta_Free_energy |   6.00E-04 |   1.00E-06 |        No
     Delta_Energy      |   6.01E-04 |   1.00E-04 |        No
     Delta_Entropy     |   1.06E-06 |   1.00E-04 |       Yes
     Commutator        |   1.94E-05 |   1.00E-05 |        No
     Delta_Fermi_level |   1.37E-03 |   1.00E-03 |        No

  Line search of the free energy minimum:
  Step_type        Step             Free_energy   Predicted_free_energy
.   Initial    0.000000    -3655.06647152706364
.    Trial1    0.318810    -3655.06667378028442
.    Trial2    0.579001    -3655.06593729069800
. Quadratic    0.212409    -3655.06674185817155    -3655.06674152940241

--------------------------------------------------------------------------------
  Iter                              Commutator    Free_energy(A=E-TS)     DeltaA
#    3                          0.000013447355   -3655.06674185817155  -2.70E-04

Step                       =       0.212409471195
Energy                     =   -3655.066694514285
Entropy (-TS)              =      -0.000047344288
Free energy (A=E-TS)       =   -3655.066741858172
Est. 0K Energy 0.5*(E+A)   =   -3655.066718186228
Residual Non-orthogonality =       0.000000000000
Residual N_electrons       =       0.000000000401

Spin          Integrated_Ne            Fermi_level     Delta_Fermi_level
   1      2559.999999998550         0.276661017191              6.28E-04

                           Spin 1          
     Orb      H-eigenvalues     Occupancies
       1 |    -0.4506382221    1.0000000000 | 
                          ------
    1276 |     0.2447883511    0.9999574417 | 
    1277 |     0.2452213671    0.9999512061 | 
    1278 |     0.2452515991    0.9999507381 | 
    1279 |     0.2452903034    0.9999501324 | 
    1280 |     0.2457001693    0.9999432423 | 
                 - Gap at zero temperature -
    1281 |     0.3093169020    0.0000332337 | 
    1282 |     0.3093794107    0.0000325842 | 
    1283 |     0.3095363674    0.0000310086 | 
    1284 |     0.3095686759    0.0000306939 | 
    1285 |     0.3096350839    0.0000300569 | 
                          ------
    2560 |     1.1121188987    0.0000000000 | 

                       |  Abs_value |  Threshold | Converged
     Delta_Free_energy |   2.70E-04 |   1.00E-06 |        No
     Delta_Energy      |   2.71E-04 |   1.00E-04 |        No
     Delta_Entropy     |   4.55E-07 |   1.00E-04 |       Yes
     Commutator        |   1.34E-05 |   1.00E-05 |        No
     Delta_Fermi_level |   6.28E-04 |   1.00E-03 |       Yes

  Line search of the free energy minimum:
  Step_type        Step             Free_energy   Predicted_free_energy
.   Initial    0.000000    -3655.06674185817155
.    Trial1    0.212409    -3655.06687022730421
.    Trial2    0.513242    -3655.06677661857475
. Quadratic    0.275605    -3655.06687731748525    -3655.06687735121113

--------------------------------------------------------------------------------
  Iter                              Commutator    Free_energy(A=E-TS)     DeltaA
#    4                          0.000010602772   -3655.06687731748525  -1.35E-04

Step                       =       0.275605258660
Energy                     =   -3655.066830429884
Entropy (-TS)              =      -0.000046887650
Free energy (A=E-TS)       =   -3655.066877317485
Est. 0K Energy 0.5*(E+A)   =   -3655.066853873685
Residual Non-orthogonality =       0.000000000000
Residual N_electrons       =       0.000000000049

[...]
 C    77 -- C   237       -0.03      5.63000
 C    38 -- C   197       -0.03      5.63000
 C    37 -- C   197       -0.03      5.63000
 C     2 -- C   162       -0.03      5.63000
 C    18 -- C   177       -0.03      5.63000
 C    17 -- C   177       -0.03      5.63000
 C   158 -- C   317       -0.03      5.63000
 C   157 -- C   317       -0.03      5.63000
 C    73 -- C   232       -0.03      5.63000
 C    72 -- C   232       -0.03      5.63000
 C   153 -- C   312       -0.03      5.63000
 C   152 -- C   312       -0.03      5.63000
 C   148 -- C   307       -0.03      5.63000
 C   147 -- C   307       -0.03      5.63000
 C    68 -- C   227       -0.03      5.63000
 C    67 -- C   227       -0.03      5.63000
 C    33 -- C   192       -0.03      5.63000
 C    32 -- C   192       -0.03      5.63000
 C   143 -- C   302       -0.04      5.63000
 C   142 -- C   302       -0.04      5.63000
 C     8 -- C   167       -0.03      5.63000
 C   138 -- C   297       -0.03      5.63000
 C   137 -- C   297       -0.03      5.63000
 C     7 -- C   167       -0.03      5.63000
 C    63 -- C   222       -0.03      5.63000
 C    62 -- C   222       -0.03      5.63000
 C   133 -- C   292       -0.03      5.63000
 C   132 -- C   292       -0.03      5.63000
 C   128 -- C   287       -0.03      5.63000
 C   127 -- C   287       -0.03      5.63000
 C   123 -- C   282       -0.03      5.63000
 C    58 -- C   217       -0.03      5.63000
 C   122 -- C   282       -0.03      5.63000
 C    57 -- C   217       -0.03      5.63000
 C    28 -- C   187       -0.03      5.63000
 C    27 -- C   187       -0.03      5.63000
 C   118 -- C   277       -0.03      5.63000
 C   117 -- C   277       -0.03      5.63000
 C   113 -- C   272       -0.03      5.63000
 C   112 -- C   272       -0.03      5.63000
 C    53 -- C   212       -0.03      5.63000
 C    52 -- C   212       -0.03      5.63000
 C    13 -- C   172       -0.03      5.63000
 C    12 -- C   172       -0.03      5.63000
 C   108 -- C   267       -0.03      5.63000
 C   107 -- C   267       -0.03      5.63000
 C   103 -- C   262       -0.04      5.63000
 C   102 -- C   262       -0.03      5.63000
 C    48 -- C   207       -0.03      5.63000
 C    47 -- C   207       -0.03      5.63000
 C    23 -- C   182       -0.03      5.63000
 C    22 -- C   182       -0.03      5.63000
 C    98 -- C   257       -0.03      5.63000
 C    97 -- C   257       -0.03      5.63000
 C    93 -- C   252       -0.03      5.63000
 C    92 -- C   252       -0.03      5.63000
 C    43 -- C   202       -0.03      5.63000
 C    42 -- C   202       -0.03      5.63000
 C    88 -- C   247       -0.03      5.63000
 C    87 -- C   247       -0.03      5.63000
 C    86 -- C   246       -0.03      5.63000
 C    41 -- C   201       -0.03      5.63000
 C    81 -- C   241       -0.03      5.63000
 C     1 -- C   161       -0.03      5.63000
 C    76 -- C   236       -0.03      5.63000
 C    36 -- C   196       -0.03      5.63000
 C   156 -- C   316       -0.03      5.63000
 C    71 -- C   231       -0.03      5.63000
 C   151 -- C   311       -0.03      5.63000
 C    16 -- C   176       -0.03      5.63000
 C   146 -- C   306       -0.03      5.63000
 C    66 -- C   226       -0.03      5.63000
 C   141 -- C   301       -0.03      5.63000
 C    31 -- C   191       -0.03      5.63000
 C   136 -- C   296       -0.03      5.63000
 C   131 -- C   291       -0.03      5.63000
 C    61 -- C   221       -0.03      5.63000
 C   126 -- C   286       -0.03      5.63000
 C   121 -- C   281       -0.03      5.63000
 C    56 -- C   216       -0.03      5.63000
 C    26 -- C   186       -0.03      5.63000
 C   116 -- C   276       -0.03      5.63000
 C     6 -- C   166       -0.03      5.63000
 C   111 -- C   271       -0.03      5.63000
 C    51 -- C   211       -0.03      5.63000
 C   106 -- C   266       -0.03      5.63000
 C   101 -- C   261       -0.03      5.63000
 C    11 -- C   171       -0.03      5.63000
 C    46 -- C   206       -0.03      5.63000
 C    96 -- C   256       -0.03      5.63000
 C    21 -- C   181       -0.03      5.63000
 C    91 -- C   251       -0.03      5.63000
 C    87 -- C   246       -0.03      5.63000
 C    42 -- C   201       -0.03      5.63000
 C    82 -- C   241       -0.03      5.63000
 C     2 -- C   161       -0.03      5.63000
 C    77 -- C   236       -0.03      5.63000
 C    37 -- C   196       -0.03      5.63000
 C   157 -- C   316       -0.03      5.63000
 C    72 -- C   231       -0.03      5.63000
 C   152 -- C   311       -0.03      5.63000
 C    17 -- C   176       -0.03      5.63000
 C   147 -- C   306       -0.03      5.63000
 C    67 -- C   226       -0.03      5.63000
 C   142 -- C   301       -0.03      5.63000
 C    32 -- C   191       -0.03      5.63000
 C   137 -- C   296       -0.03      5.63000
 C   132 -- C   291       -0.03      5.63000
 C    62 -- C   221       -0.03      5.63000
 C   127 -- C   286       -0.03      5.63000
 C   122 -- C   281       -0.03      5.63000
 C    57 -- C   216       -0.03      5.63000
 C    27 -- C   186       -0.03      5.63000
 C     7 -- C   166       -0.03      5.63000
 C   117 -- C   276       -0.03      5.63000
 C   112 -- C   271       -0.03      5.63000
 C    52 -- C   211       -0.03      5.63000
 C   107 -- C   266       -0.03      5.63000
 C    12 -- C   171       -0.03      5.63000
 C   102 -- C   261       -0.03      5.63000
 C    47 -- C   206       -0.03      5.63000
 C    97 -- C   256       -0.03      5.63000
 C    22 -- C   181       -0.03      5.63000
 C    92 -- C   251       -0.03      5.63000
 C    85 -- C   244       -0.03      5.63000
 C    84 -- C   244       -0.03      5.63000
 C    20 -- C   179       -0.03      5.63000
 C    19 -- C   179       -0.03      5.63000
 C    83 -- C   243       -0.03      5.63000
 C    10 -- C   169       -0.03      5.63000
 C     9 -- C   169       -0.03      5.63000
 C    40 -- C   199       -0.03      5.63000
 C    39 -- C   199       -0.03      5.63000
 C    80 -- C   239       -0.03      5.63000
 C    79 -- C   239       -0.03      5.63000
 C    78 -- C   238       -0.03      5.63000
 C    18 -- C   178       -0.03      5.63000
 C    38 -- C   198       -0.03      5.63000
 C     5 -- C   164       -0.03      5.63000
 C     4 -- C   164       -0.03      5.63000
 C    75 -- C   234       -0.03      5.63000
 C    74 -- C   234       -0.03      5.63000
 C   160 -- C   319       -0.03      5.63000
 C   159 -- C   319       -0.03      5.63000
 C    73 -- C   233       -0.03      5.63000
 C   158 -- C   318       -0.03      5.63000
 C   155 -- C   314       -0.03      5.63000
 C   154 -- C   314       -0.03      5.63000
 C    35 -- C   194       -0.03      5.63000
 C   153 -- C   313       -0.03      5.63000
 C    34 -- C   194       -0.03      5.63000
 C   150 -- C   309       -0.03      5.63000
 C   149 -- C   309       -0.03      5.63000
 C    70 -- C   229       -0.03      5.63000
 C    69 -- C   229       -0.03      5.63000
 C   148 -- C   308       -0.03      5.63000
 C     8 -- C   168       -0.03      5.63000
 C    33 -- C   193       -0.03      5.63000
 C    68 -- C   228       -0.03      5.63000
 C   145 -- C   304       -0.03      5.63000
 C   144 -- C   304       -0.04      5.63000
 C   143 -- C   303       -0.04      5.63000
 C   140 -- C   299       -0.03      5.63000
 C   139 -- C   299       -0.03      5.63000
 C   138 -- C   298       -0.03      5.63000
 C    65 -- C   224       -0.03      5.63000
 C    64 -- C   224       -0.03      5.63000
 C   135 -- C   294       -0.03      5.63000
 C   134 -- C   294       -0.03      5.63000
 C    63 -- C   223       -0.03      5.63000
 C   133 -- C   293       -0.03      5.63000
 C    30 -- C   189       -0.03      5.63000
 C    29 -- C   189       -0.03      5.63000
 C    15 -- C   174       -0.03      5.63000
 C   130 -- C   289       -0.03      5.63000
 C   129 -- C   289       -0.03      5.63000
 C    14 -- C   174       -0.03      5.63000
 C   128 -- C   288       -0.03      5.63000
 C    60 -- C   219       -0.03      5.63000
 C    59 -- C   219       -0.03      5.63000
 C   125 -- C   284       -0.03      5.63000
 C   124 -- C   284       -0.03      5.63000
 C    28 -- C   188       -0.03      5.63000
 C    58 -- C   218       -0.03      5.63000
 C   123 -- C   283       -0.03      5.63000
 C   120 -- C   279       -0.03      5.63000
 C   119 -- C   279       -0.03      5.63000
 C   118 -- C   278       -0.03      5.63000
 C    55 -- C   214       -0.03      5.63000
 C    54 -- C   214       -0.03      5.63000
 C   115 -- C   274       -0.03      5.63000
 C   114 -- C   274       -0.03      5.63000
 C   113 -- C   273       -0.03      5.63000
 C    13 -- C   173       -0.03      5.63000
 C    53 -- C   213       -0.03      5.63000
 C     3 -- C   163       -0.03      5.63000
 C   110 -- C   269       -0.03      5.63000
 C   109 -- C   269       -0.03      5.63000
 C    25 -- C   184       -0.03      5.63000
 C   108 -- C   268       -0.03      5.63000
 C    24 -- C   184       -0.03      5.63000
 C    50 -- C   209       -0.03      5.63000
 C    49 -- C   209       -0.03      5.63000
 C   105 -- C   264       -0.03      5.63000
 C   104 -- C   264       -0.03      5.63000
 C   103 -- C   263       -0.03      5.63000
 C    48 -- C   208       -0.03      5.63000
 C    23 -- C   183       -0.03      5.63000
 C   100 -- C   259       -0.03      5.63000
 C    99 -- C   259       -0.03      5.63000
 C    98 -- C   258       -0.03      5.63000
 C    95 -- C   254       -0.03      5.63000
 C    94 -- C   254       -0.03      5.63000
 C    45 -- C   204       -0.03      5.63000
 C    44 -- C   204       -0.03      5.63000
 C    93 -- C   253       -0.03      5.63000
 C    43 -- C   203       -0.03      5.63000
 C    90 -- C   249       -0.03      5.63000
 C    89 -- C   249       -0.03      5.63000
 C    88 -- C   248       -0.03      5.63000
==================================================


=================== Orbital energy and occupancy information ===================

      Total number of orbitals:    2560
        Occupancy sum (kernel):    1280.000000000
   Occupancy sum (eigenvalues):    1280.000000000
                 HOMO-LUMO gap:       0.061588879 Eh
                 Mid-gap level:       0.309260577 Eh

                        Orbital | Energy (Eh) | Occupancy
                            1    -0.421739066   1.0000000
                        .......   ...........   .........
                         1271     0.274545634   0.9999805
                         1272     0.274562048   0.9999804
                         1273     0.275010885   0.9999774
                         1274     0.275027209   0.9999773
                         1275     0.277244793   0.9999542
                         1276     0.277627196   0.9999483
                         1277     0.278030925   0.9999414
                         1278     0.278057516   0.9999409
                         1279     0.278439269   0.9999333
                         1280     0.278466138   0.9999328
                        ....... -- gap at 0K -- .........
                         1281     0.340055017   0.0000532
                         1282     0.340055866   0.0000532
                         1283     0.340313749   0.0000490
                         1284     0.340314549   0.0000490
                         1285     0.341642889   0.0000324
                         1286     0.341670796   0.0000321
                         1287     0.341924275   0.0000296
                         1288     0.341952384   0.0000294
                         1289     0.342549747   0.0000244
                         1290     0.342841091   0.0000223
                        .......   ...........   .........
                         2560     1.198412653   0.0000000

================================================================================

===================== Writing canonical molecular orbitals =====================
| Orbital  Energy (eV)  Norm     |
| HOMO      7.57744917  1.000000 | Writing "2.9783632_GO_manual_4x64graphite_HOMO.cube" ... done
Writing "2.9783632_GO_manual_4x64graphite_HOMO.dx" ... done
| LUMO      9.25336785  1.000000 | Writing "2.9783632_GO_manual_4x64graphite_LUMO.cube" ... done
Writing "2.9783632_GO_manual_4x64graphite_LUMO.dx" ... done
================================================================================
 
===================== Density of States (DOS) calculation ======================
Writing "2.9783632_GO_manual_4x64graphite_DOS.txt" ...  done
================================================================================
 
Writing bands to file "2.9783632_GO_manual_4x64graphite.val_bands" ... done
 
================ Projected Density of States (pDOS) calculation ================
 
Constructing AM resolved functions  ...... done
Writing NGWF plot files in formats: CUBE DX ...  done
 
Performing overlap integrals ...  done
 
Computing pDOS weights ...  done
 
All bands spilling parameter =   3.70 %
Occupancy-weighted spilling parameter =   0.77 %
 
 => Outputting data for OptaDOS <=
 
Writing pDOS weights to file "2.9783632_GO_manual_4x64graphite.val_pdos_bin" ... done
 
Writing band gradients to file "2.9783632_GO_manual_4x64graphite.val_dome_bin" ... done
 
Writing Castep output cell file to "2.9783632_GO_manual_4x64graphite-out.cell" ... done
 
 => Computing Gaussian smeared pDOS <= 
Writing "2.9783632_GO_manual_4x64graphite_PDOS.txt" ...  done
 
 => Computing Occupancy-weighted Gaussian smeared pDOS <= 
Writing "2.9783632_GO_manual_4x64graphite_occ_PDOS.txt" ...  done
  => Band centres: 
 S band centre of group 1:  -14.667738 eV
 P band centre of group 1:   -7.586044 eV
  Band centres done. <=
  => Integrated number of electrons in each AM band: 
 S num electrons of group 1:  574.937220
 P num electrons of group 1: 1965.442683
  Integrated number of electrons done. <=
================================================================================

------------------------------ TIMING INFORMATION ------------------------------
AVERAGE TIME:    4549.543s on     40 node(s)                                    
TOTAL TIME:      4549.545s on     40 node(s)                                    
================= AVERAGE TIMINGS FROM ALL NODES (CUMULATIVE) ==================
|| TAG                                    #calls    cpu time   %total  Gflops ||
|| work_imbalance                       :     1        0.00s   0.000%  ------ ||
|| paw_tcore_hartree_on_grid            :     1        0.01s   0.000%  ------ ||
|| paw_tcore_density                    :     1        0.01s   0.000%  ------ ||
|| paw_sphere_density_on_grid           :     1        0.01s   0.000%  ------ ||
|| sparse_set_to_garbage                :   171        0.03s   0.001%  ------ ||
|| pseudo_make_structure_factor         :     1        0.05s   0.001%  ------ ||
|| paw_dij_hartree                      :   397        0.05s   0.001%  ------ ||
|| basis_extract_function_from_box      :  1920        0.08s   0.002%  ------ ||
|| paw_species_calc_proj_prec_mat       :     1        0.12s   0.003%  ------ ||
|| paw_dataset_init                     :     1        0.16s   0.003%  ------ ||
|| density_init_guess_real              :     1        0.50s   0.011%  ------ ||
|| sparse_init                          :     1        0.98s   0.022%  ------ ||
|| dense_normal_eigensolve              :     1        1.06s   0.023%  ------ ||
|| restart_kernel_write                 :    16        1.53s   0.034%  ------ ||
|| hartree_on_grid                      :   297        1.54s   0.034%  ------ ||
|| ngwfs_initialise_from_radial         :     2        1.83s   0.040%  ------ ||
|| ewald_calculate_energy               :     1        2.11s   0.046%  ------ ||
|| projectors_init_fftbox_recip         :   151        2.82s   0.062%  ------ ||
|| basis_copy_function_to_box           : 27904        5.35s   0.118%  ------ ||
|| fourier_apply_box_pair               :  2848        5.84s   0.128% 427.127 ||
|| sw_init                              :     1        6.73s   0.148%  ------ ||
|| augmentation_screen_dij              :   302        6.80s   0.150%  ------ ||
|| sparse_embed_hotelling_invert_embed  :    29        8.95s   0.197%  ------ ||
|| ngwf_gradient_coeffs                 :    15       11.98s   0.263%  ------ ||
|| cell_grid_extract_box_real           : 11820       16.30s   0.358%  ------ ||
|| fourier_apply_cell_backward          :  9178       17.29s   0.380%  54.873 ||
|| fourier_apply_cell_forward           :  8585       18.58s   0.408%  47.785 ||
|| sparse_trace                         :  3614       21.20s   0.466%  ------ ||
|| cell_grid_deposit_box_real           : 38192       26.00s   0.571%  ------ ||
|| paw_dij_xc                           :   397       26.84s   0.590%  ------ ||
|| aug_nonlocal_mat                     :   382       41.60s   0.914%  ------ ||
|| density_fftbox_deposit_to_cell       : 19008       47.00s   1.033%  ------ ||
|| hamiltonian_energy_components        :     3       53.82s   1.183%  ------ ||
|| eigenstates_pdos                     :     1       56.34s   1.238%  ------ ||
|| augmentation_density_on_grid         :   297       57.28s   1.259%  ------ ||
|| eigenstates_calculate                :     1       60.58s   1.332%  ------ ||
|| function_ops_brappd_ketppd           :    60       69.28s   1.523%  ------ ||
|| nlxc_vdw_energy                      :   592       73.44s   1.614%  ------ ||
|| projectors_func_ovlp_box             :    30       74.85s   1.645%  ------ ||
|| xc_energy_potential                  :   296       83.01s   1.825%  ------ ||
|| properties_calculate                 :     1      105.74s   2.324%  ------ ||
|| integrals_kinetic                    :    29      119.37s   2.624%  ------ ||
|| dense_eigensolve                     :   264      127.67s   2.806%  ------ ||
|| restart_ngwfs_tightbox_output        :    14      140.82s   3.095%  ------ ||
|| potential_apply_to_ngwf_batch        :   376      149.12s   3.278%  ------ ||
|| sparse_product                       :  3574      162.16s   3.564%  ------ ||
|| projectors_gradient_batch            :    60      271.62s   5.970%  ------ ||
|| basis_dot_function_with_box          : 10.15M     279.74s   6.149%  ------ ||
|| edft_diag_ngwf_ham                   :   263      289.29s   6.359%  ------ ||
|| fourier_apply_box                    : 87312      300.36s   6.602% 840.973 ||
|| density_fftbox_interpolate_multiply  : 19008      364.93s   8.021%  ------ ||
|| projectors_grad_precond_batch        :    60      388.61s   8.542%  ------ ||
|| integrals_locpot_mat_els_batch       :   376      394.74s   8.677%  ------ ||
|| density_batch_interp_deposit         :  1188      459.07s  10.090%  ------ ||
|| integrals_locpot_dbl_grid            :    94      545.81s  11.997%  ------ ||
|| edft_apply_smearing_operator         :   263      566.64s  12.455%  ------ ||
|| ngwf_gradient_build_batch            :    60      705.74s  15.512%  ------ ||
|| basis_add_function_to_box            : 29.15M     770.40s  16.934%  ------ ||
|| ngwf_gradient_batch                  :    60      984.19s  21.633%  ------ ||
|| ngwf_gradient_lnv                    :    15     1012.91s  22.264%  ------ ||
|| density_batch_row_sums               :  1188     1125.66s  24.742%  ------ ||
|| density_on_dbl_grid                  :   297     1601.87s  35.209%  ------ ||
|| hamiltonian_lhxc_calculate           :   292     1719.75s  37.801%  ------ ||
|| edft_calculate                       :    15     2828.18s  62.164%  ------ ||
|| ngwf_cg_optimise                     :     1     4416.51s  97.076%  ------ ||
|| total_time                           :     1     4549.54s 100.000%  ------ ||
================================================================================
Overhead of generating timer report: 
- 0 ms averaging over threads,
- 6 ms ensuring consistency across MPI ranks,
- 0 ms printing in order.

Job completed: 26-02-2020 00:08 (-0000)

