 +---------------------------------------------------------------+
 |                                                               |
 |        ####### #     # ####### ####### ####### ######         |
 |        #     # ##    # #          #    #       #     #        |
 |        #     # # #   # #          #    #       #     #        |
 |        #     # #  #  # #####      #    #####   ######         |
 |        #     # #   # # #          #    #       #              |
 |        #     # #    ## #          #    #       #              |
 |        ####### #     # #######    #    ####### #              |
 |                                                               |
 |        Linear-Scaling Ab Initio Total Energy Program          |
 |                                                               |
 |          Release for academic collaborators of ODG            |
 |                                             Version 5.3.2.12  |
 |                                                               |
 +---------------------------------------------------------------+
 |                                                               |
 |  Authors:                                                     |
 |  Jacek Dziedzic, Peter D. Haynes, Nicholas D. M. Hine,        |
 |  Arash. A. Mostofi, Mike C. Payne and Chris-Kriton Skylaris   |
 |                                                               |
 |  Contributors:                                                |
 |  J. Aarons, L. Andrinopoulos, P. W. Avraam, R. A. Bell,       |
 |  A. Bhandari, G. A. Bramley, R. J. Charlton, S. J. Clark,     |
 |  R. J. Clements, G. C. Constantinescu, F. Corsetti,           |
 |  N. Corsini, O. Dieguez, S. M. M. Dubois, K. K. B. Duff,      |
 |  J. M. Escartin, A. Greco, H. Helal, Q. O. Hill, L. P. Lee,   |
 |  J.-H. Li, E. B. Linscott, G. Moynihan, D. D. O`Regan,        |
 |  O. K. Okan, M. J. S. Phipps, C. J. Pickard,                  |
 |  J. C. A. Prentice, M. I. J. Probert, L. E. Ratcliff,         |
 |  M. Robinson, A. Ruiz Serrano, J. S. Spencer, E. W. Tait,     |
 |  G. Teobaldi, D. Turban, V. Vitale, K. A. Wilkinson,          |
 |  C. Weber, J. C. Womack, N. Yeung and T. J. Zuehlsdorff       |
 |                                                               |
 |                                   Copyright (c) 2004-2020     |
 |                                                               |
 |  Please cite:                                                 |
 |  "Introducing ONETEP: Linear-scaling density functional       |
 |   simulations on parallel computers".                         |
 |   C.-K. Skylaris, P. D. Haynes, A. A. Mostofi, M. C. Payne.   |
 |   J. Chem. Phys. 122 084119 (2005).                           |
 |                                                               |
 |          in all publications arising from your use of ONETEP. |
 |                                                               |
 +---------------------------------------------------------------+
 |                                                               |
 |   ONETEP is based on developments described in the following  |
 |   publications:                                               |
 |                                                               |
 |  "Nonorthogonal generalized Wannier function pseudopotential  |
 |   plane-wave method".                                         |
 |   C.-K. Skylaris, A. A. Mostofi, P. D. Haynes, O. Dieguez,    |
 |   M. C. Payne.                                                |
 |   Phys. Rev. B 66 035119 (2002).                              |
 |                                                               |
 |  "Preconditioned iterative minimization for linear-scaling    |
 |   electronic structure calculations".                         |
 |   A. A. Mostofi, P. D. Haynes, C.-K. Skylaris, M. C. Payne.   |
 |   J. Chem. Phys. 119(17), pp.8842-8848 (2003).                |
 |                                                               |
 |  "Total-energy calculations on a real space grid with         |
 |   localized functions and a plane-wave basis".                |
 |   A. A. Mostofi, C.-K. Skylaris, P. D. Haynes, M. C. Payne.   |
 |   Comput. Phys. Commun. 147, pp.788-802 (2002).               |
 |                                                               |
 |  "Accurate kinetic energy evaluation in electronic structure  |
 |   calculations with localized functions on real space grids"  |
 |   C.-K. Skylaris, A. A. Mostofi, P. D. Haynes, C. J. Pickard, |
 |   M. C. Payne.                                                |
 |   Comput. Phys. Commun. 140, pp.315-322 (2001).               |
 |                                                               |
 |  "Accurate ionic forces and geometry optimization in linear-  |
 |   scaling density-functional theory with local orbitals"      |
 |   N. D. M. Hine, M. Robinson, P. D. Haynes, C.-K. Skylaris,   |
 |   M. C. Payne, and A. A. Mostofi.                             |
 |   Phys. Rev. B 83 195102 (2011).                              |
 |                                                               |
 +---------------------------------------------------------------+

Job started: 25-02-2020 10:21 (-0000)
 
Reading parameters from file "3.1393504_GO_manual_4x64graphite.dat" ...

WARNING: "cutoff_energy" not specified, but "psinc_spacing" specified.
         Using the latter to set the KE cutoff energy to  732.32021eV,
         thus *overriding* the default.

... done

If your calculation crashes here, before "Checking processes and threads..."
is displayed, then your stack size is insufficient.
If so, use "ulimit -s unlimited" at runtime.
You can disable this check with "check_stack_size F".

Checking processes and threads...
   Determining the default number of threads...
      No default threads set at compilation time: defaulting to 1.
      OpenMP library call suggests 4 threads.
      Hybrid MPI-OpenMP compilation detected.
      Number of MPI processes > 1.
      OMP_NUM_THREADS environment variable present and
      its value matches the one obtained from the OpenMP library call.
      Using this value as default.
      Default threads: 4
      Default applies to threads_max and threads_num_fftboxes.
      Settings in the input file override this default.
   ... done

   Running with 40 MPI processes.
   There are 10 MPI processes running on the same node as the root process.
   Each MPI process is using: 
               1 threads for simulation cell FFTs.
               1 threads for parallel FFT box operations.
               4 threads for loops over batched FFT box operations.
               4 threads in other parallel regions.
... done

Basic input checks...
Resetting ngwf_cg_rotate to TRUE for EDFT calculations
... done

Reading geometry and species blocks from file "3.1393504_GO_manual_4x64graphite.dat" ...
    
  PSINC grid spacing along a1 set to   0.511215680000a0 from input file.
  PSINC grid spacing along a2 set to   0.531284090000a0 from input file.
  PSINC grid spacing along a3 set to   0.507053390000a0 from input file.
  Number of PPD points along a3 set to 1.  This is 
  the default value, it may have been provided also in the input file.
... done
 Writing xyz coordinates to file "3.1393504_GO_manual_4x64graphite.xyz" ... done


--------------------------------------------------------------------------------
---------------------------------- INPUT FILE ----------------------------------
--------------------------------------------------------------------------------

task : singlepoint                                                              
do_properties : true                                                            
dx_format T                                                                     
edft T                                                                          
output_detail VERBOSE                                                           
write_xyz T                                                                     
xc_functional OPTB88                                                            
PSINC_SPACING 0.51121568 0.53128409 0.50705339                                  
paw T                                                                           
pdos_max_l = 2                                                                  
dos_smear  0.1 eV                                                               
popn_calculate T                                                                
PDOS_PSEUDOATOMIC T                                                             
PDOS_REDUCE_SWS F                                                               
PDOS_CONSTRUCT_BASIS F                                                          
PDOS_LOWDIN T                                                                   
PDOS_ORTH_ATOM_BLOCKS F                                                         
PDOS_LCAO_OPTIMIZE F                                                            
pdos_optados_output T                                                           
homo_plot 0                                                                     
lumo_plot 0                                                                     
homo_dens_plot -1                                                               
lumo_dens_plot -1                                                               
%BLOCK SPECIES                                                                  
C C 6 4 9.0                                                                     
%ENDBLOCK SPECIES                                                               
%BLOCK SPECIES_POT                                                              
C "~/pp/paw/c_pbe_abinit.paw"                                                   
%ENDBLOCK SPECIES_POT                                                           
%BLOCK SPECIES_ATOMIC_SET                                                       
C "SOLVE conf=2s2 2p2"                                                          
%ENDBLOCK SPECIES_ATOMIC_SET                                                    
%BLOCK LATTICE_CART                                                             
32.21  0.00  0.00                                                               
0.00 18.59  0.00                                                                
0.00  0.00 59.33                                                                
%ENDBLOCK LATTICE_CART                                                          
%BLOCK POSITIONS_ABS                                                            
C  0.00  0.00  2.97                                                             
C  0.00  0.00 14.83                                                             
C  0.00  0.00 26.70                                                             
C  0.00  0.00 38.56                                                             
C  0.00  0.00 50.43                                                             
C  0.00  4.65  2.97                                                             
C  0.00  4.65 14.83                                                             
C  0.00  4.65 26.70                                                             
C  0.00  4.65 38.56                                                             
C  0.00  4.65 50.43                                                             
C  4.03  2.32  2.97                                                             
C  4.03  2.32 14.83                                                             
C  4.03  2.32 26.70                                                             
C  4.03  2.32 38.56                                                             
C  4.03  2.32 50.43                                                             
C  8.05  0.00  2.97                                                             
C  8.05  0.00 14.83                                                             
C  8.05  0.00 26.70                                                             
C  8.05  0.00 38.56                                                             
C  8.05  0.00 50.43                                                             
C  0.00  9.30  2.97                                                             
C  0.00  9.30 14.83                                                             
C  0.00  9.30 26.70                                                             
C  0.00  9.30 38.56                                                             
C  0.00  9.30 50.43                                                             
C  4.03  6.97  2.97                                                             
C  4.03  6.97 14.83                                                             
C  4.03  6.97 26.70                                                             
C  4.03  6.97 38.56                                                             
C  4.03  6.97 50.43                                                             
C  8.05  4.65  2.97                                                             
C  8.05  4.65 14.83                                                             
C  8.05  4.65 26.70                                                             
C  8.05  4.65 38.56                                                             
C  8.05  4.65 50.43                                                             
C 12.08  2.32  2.97                                                             
C 12.08  2.32 14.83                                                             
C 12.08  2.32 26.70                                                             
C 12.08  2.32 38.56                                                             
C 12.08  2.32 50.43                                                             
C 16.10  0.00  2.97                                                             
C 16.10  0.00 14.83                                                             
C 16.10  0.00 26.70                                                             
C 16.10  0.00 38.56                                                             
C 16.10  0.00 50.43                                                             
C  0.00 13.95  2.97                                                             
C  0.00 13.95 14.83                                                             
C  0.00 13.95 26.70                                                             
C  0.00 13.95 38.56                                                             
C  0.00 13.95 50.43                                                             
C  4.03 11.62  2.97                                                             
C  4.03 11.62 14.83                                                             
C  4.03 11.62 26.70                                                             
C  4.03 11.62 38.56                                                             
C  4.03 11.62 50.43                                                             
C  8.05  9.30  2.97                                                             
C  8.05  9.30 14.83                                                             
C  8.05  9.30 26.70                                                             
C  8.05  9.30 38.56                                                             
C  8.05  9.30 50.43                                                             
C 12.08  6.97  2.97                                                             
C 12.08  6.97 14.83                                                             
C 12.08  6.97 26.70                                                             
C 12.08  6.97 38.56                                                             
C 12.08  6.97 50.43                                                             
C 16.10  4.65  2.97                                                             
C 16.10  4.65 14.83                                                             
C 16.10  4.65 26.70                                                             
C 16.10  4.65 38.56                                                             
C 16.10  4.65 50.43                                                             
C 20.13  2.32  2.97                                                             
C 20.13  2.32 14.83                                                             
C 20.13  2.32 26.70                                                             
C 20.13  2.32 38.56                                                             
C 20.13  2.32 50.43                                                             
C 24.16  0.00  2.97                                                             
C 24.16  0.00 14.83                                                             
C 24.16  0.00 26.70                                                             
C 24.16  0.00 38.56                                                             
C 24.16  0.00 50.43                                                             
C  4.03 16.27  2.97                                                             
C  4.03 16.27 14.83                                                             
C  4.03 16.27 26.70                                                             
C  4.03 16.27 38.56                                                             
C  4.03 16.27 50.43                                                             
C  8.05 13.95  2.97                                                             
C  8.05 13.95 14.83                                                             
C  8.05 13.95 26.70                                                             
C  8.05 13.95 38.56                                                             
C  8.05 13.95 50.43                                                             
C 12.08 11.62  2.97                                                             
C 12.08 11.62 14.83                                                             
C 12.08 11.62 26.70                                                             
C 12.08 11.62 38.56                                                             
C 12.08 11.62 50.43                                                             
C 16.10  9.30  2.97                                                             
C 16.10  9.30 14.83                                                             
C 16.10  9.30 26.70                                                             
C 16.10  9.30 38.56                                                             
C 16.10  9.30 50.43                                                             
C 20.13  6.97  2.97                                                             
C 20.13  6.97 14.83                                                             
C 20.13  6.97 26.70                                                             
C 20.13  6.97 38.56                                                             
C 20.13  6.97 50.43                                                             
C 24.16  4.65  2.97                                                             
C 24.16  4.65 14.83                                                             
C 24.16  4.65 26.70                                                             
C 24.16  4.65 38.56                                                             
C 24.16  4.65 50.43                                                             
C 28.18  2.32  2.97                                                             
C 28.18  2.32 14.83                                                             
C 28.18  2.32 26.70                                                             
C 28.18  2.32 38.56                                                             
C 28.18  2.32 50.43                                                             
C 12.08 16.27  2.97                                                             
C 12.08 16.27 14.83                                                             
C 12.08 16.27 26.70                                                             
C 12.08 16.27 38.56                                                             
C 12.08 16.27 50.43                                                             
C 16.10 13.95  2.97                                                             
C 16.10 13.95 14.83                                                             
C 16.10 13.95 26.70                                                             
C 16.10 13.95 38.56                                                             
C 16.10 13.95 50.43                                                             
C 20.13 11.62  2.97                                                             
C 20.13 11.62 14.83                                                             
C 20.13 11.62 26.70                                                             
C 20.13 11.62 38.56                                                             
C 20.13 11.62 50.43                                                             
C 24.16  9.30  2.97                                                             
C 24.16  9.30 14.83                                                             
C 24.16  9.30 26.70                                                             
C 24.16  9.30 38.56                                                             
C 24.16  9.30 50.43                                                             
C 28.18  6.97  2.97                                                             
C 28.18  6.97 14.83                                                             
C 28.18  6.97 26.70                                                             
C 28.18  6.97 38.56                                                             
C 28.18  6.97 50.43                                                             
C 20.13 16.27  2.97                                                             
C 20.13 16.27 14.83                                                             
C 20.13 16.27 26.70                                                             
C 20.13 16.27 38.56                                                             
C 20.13 16.27 50.43                                                             
C 24.16 13.95  2.97                                                             
C 24.16 13.95 14.83                                                             
C 24.16 13.95 26.70                                                             
C 24.16 13.95 38.56                                                             
C 24.16 13.95 50.43                                                             
C 28.18 11.62  2.97                                                             
C 28.18 11.62 14.83                                                             
C 28.18 11.62 26.70                                                             
C 28.18 11.62 38.56                                                             
C 28.18 11.62 50.43                                                             
C 28.18 16.27  2.97                                                             
C 28.18 16.27 14.83                                                             
C 28.18 16.27 26.70                                                             
C 28.18 16.27 38.56                                                             
C 28.18 16.27 50.43                                                             
C  0.00  0.00  8.90                                                             
C  0.00  0.00 20.76                                                             
C  0.00  0.00 32.63                                                             
C  0.00  0.00 44.49                                                             
C  0.00  0.00 56.36                                                             
C  0.00  4.65  8.90                                                             
C  0.00  4.65 20.76                                                             
C  0.00  4.65 32.63                                                             
C  0.00  4.65 44.49                                                             
C  0.00  4.65 56.36                                                             
C  4.03  2.32  8.90                                                             
C  4.03  2.32 20.76                                                             
C  4.03  2.32 32.63                                                             
C  4.03  2.32 44.49                                                             
C  4.03  2.32 56.36                                                             
C  8.05  0.00  8.90                                                             
C  8.05  0.00 20.76                                                             
C  8.05  0.00 32.63                                                             
C  8.05  0.00 44.49                                                             
C  8.05  0.00 56.36                                                             
C  0.00  9.30  8.90                                                             
C  0.00  9.30 20.76                                                             
C  0.00  9.30 32.63                                                             
C  0.00  9.30 44.49                                                             
C  0.00  9.30 56.36                                                             
C  4.03  6.97  8.90                                                             
C  4.03  6.97 20.76                                                             
C  4.03  6.97 32.63                                                             
C  4.03  6.97 44.49                                                             
C  4.03  6.97 56.36                                                             
C  8.05  4.65  8.90                                                             
C  8.05  4.65 20.76                                                             
C  8.05  4.65 32.63                                                             
C  8.05  4.65 44.49                                                             
C  8.05  4.65 56.36                                                             
C 12.08  2.32  8.90                                                             
C 12.08  2.32 20.76                                                             
C 12.08  2.32 32.63                                                             
C 12.08  2.32 44.49                                                             
C 12.08  2.32 56.36                                                             
C 16.10  0.00  8.90                                                             
C 16.10  0.00 20.76                                                             
C 16.10  0.00 32.63                                                             
C 16.10  0.00 44.49                                                             
C 16.10  0.00 56.36                                                             
C  0.00 13.95  8.90                                                             
C  0.00 13.95 20.76                                                             
C  0.00 13.95 32.63                                                             
C  0.00 13.95 44.49                                                             
C  0.00 13.95 56.36                                                             
C  4.03 11.62  8.90                                                             
C  4.03 11.62 20.76                                                             
C  4.03 11.62 32.63                                                             
C  4.03 11.62 44.49                                                             
C  4.03 11.62 56.36                                                             
C  8.05  9.30  8.90                                                             
C  8.05  9.30 20.76                                                             
C  8.05  9.30 32.63                                                             
C  8.05  9.30 44.49                                                             
C  8.05  9.30 56.36                                                             
C 12.08  6.97  8.90                                                             
C 12.08  6.97 20.76                                                             
C 12.08  6.97 32.63                                                             
C 12.08  6.97 44.49                                                             
C 12.08  6.97 56.36                                                             
C 16.10  4.65  8.90                                                             
C 16.10  4.65 20.76                                                             
C 16.10  4.65 32.63                                                             
C 16.10  4.65 44.49                                                             
C 16.10  4.65 56.36                                                             
C 20.13  2.32  8.90                                                             
C 20.13  2.32 20.76                                                             
C 20.13  2.32 32.63                                                             
C 20.13  2.32 44.49                                                             
C 20.13  2.32 56.36                                                             
C 24.16  0.00  8.90                                                             
C 24.16  0.00 20.76                                                             
C 24.16  0.00 32.63                                                             
C 24.16  0.00 44.49                                                             
C 24.16  0.00 56.36                                                             
C  4.03 16.27  8.90                                                             
C  4.03 16.27 20.76                                                             
C  4.03 16.27 32.63                                                             
C  4.03 16.27 44.49                                                             
C  4.03 16.27 56.36                                                             
C  8.05 13.95  8.90                                                             
C  8.05 13.95 20.76                                                             
C  8.05 13.95 32.63                                                             
C  8.05 13.95 44.49                                                             
C  8.05 13.95 56.36                                                             
C 12.08 11.62  8.90                                                             
C 12.08 11.62 20.76                                                             
C 12.08 11.62 32.63                                                             
C 12.08 11.62 44.49                                                             
C 12.08 11.62 56.36                                                             
C 16.10  9.30  8.90                                                             
C 16.10  9.30 20.76                                                             
C 16.10  9.30 32.63                                                             
C 16.10  9.30 44.49                                                             
C 16.10  9.30 56.36                                                             
C 20.13  6.97  8.90                                                             
C 20.13  6.97 20.76                                                             
C 20.13  6.97 32.63                                                             
C 20.13  6.97 44.49                                                             
C 20.13  6.97 56.36                                                             
C 24.16  4.65  8.90                                                             
C 24.16  4.65 20.76                                                             
C 24.16  4.65 32.63                                                             
C 24.16  4.65 44.49                                                             
C 24.16  4.65 56.36                                                             
C 28.18  2.32  8.90                                                             
C 28.18  2.32 20.76                                                             
C 28.18  2.32 32.63                                                             
C 28.18  2.32 44.49                                                             
C 28.18  2.32 56.36                                                             
C 12.08 16.27  8.90                                                             
C 12.08 16.27 20.76                                                             
C 12.08 16.27 32.63                                                             
C 12.08 16.27 44.49                                                             
C 12.08 16.27 56.36                                                             
C 16.10 13.95  8.90                                                             
C 16.10 13.95 20.76                                                             
C 16.10 13.95 32.63                                                             
C 16.10 13.95 44.49                                                             
C 16.10 13.95 56.36                                                             
C 20.13 11.62  8.90                                                             
C 20.13 11.62 20.76                                                             
C 20.13 11.62 32.63                                                             
C 20.13 11.62 44.49                                                             
C 20.13 11.62 56.36                                                             
C 24.16  9.30  8.90                                                             
C 24.16  9.30 20.76                                                             
C 24.16  9.30 32.63                                                             
C 24.16  9.30 44.49                                                             
C 24.16  9.30 56.36                                                             
C 28.18  6.97  8.90                                                             
C 28.18  6.97 20.76                                                             
C 28.18  6.97 32.63                                                             
C 28.18  6.97 44.49                                                             
C 28.18  6.97 56.36                                                             
C 20.13 16.27  8.90                                                             
C 20.13 16.27 20.76                                                             
C 20.13 16.27 32.63                                                             
C 20.13 16.27 44.49                                                             
C 20.13 16.27 56.36                                                             
C 24.16 13.95  8.90                                                             
C 24.16 13.95 20.76                                                             
C 24.16 13.95 32.63                                                             
C 24.16 13.95 44.49                                                             
C 24.16 13.95 56.36                                                             
C 28.18 11.62  8.90                                                             
C 28.18 11.62 20.76                                                             
C 28.18 11.62 32.63                                                             
C 28.18 11.62 44.49                                                             
C 28.18 11.62 56.36                                                             
C 28.18 16.27  8.90                                                             
C 28.18 16.27 20.76                                                             
C 28.18 16.27 32.63                                                             
C 28.18 16.27 44.49                                                             
C 28.18 16.27 56.36                                                             
C  1.34  2.32  2.97                                                             
C  1.34  2.32 14.83                                                             
C  1.34  2.32 26.70                                                             
C  1.34  2.32 38.56                                                             
C  1.34  2.32 50.43                                                             
C  5.37  0.00  2.97                                                             
C  5.37  0.00 14.83                                                             
C  5.37  0.00 26.70                                                             
C  5.37  0.00 38.56                                                             
C  5.37  0.00 50.43                                                             
C  1.34  6.97  2.97                                                             
C  1.34  6.97 14.83                                                             
C  1.34  6.97 26.70                                                             
C  1.34  6.97 38.56                                                             
C  1.34  6.97 50.43                                                             
C  5.37  4.65  2.97                                                             
C  5.37  4.65 14.83                                                             
C  5.37  4.65 26.70                                                             
C  5.37  4.65 38.56                                                             
C  5.37  4.65 50.43                                                             
C  9.39  2.32  2.97                                                             
C  9.39  2.32 14.83                                                             
C  9.39  2.32 26.70                                                             
C  9.39  2.32 38.56                                                             
C  9.39  2.32 50.43                                                             
C 13.42  0.00  2.97                                                             
C 13.42  0.00 14.83                                                             
C 13.42  0.00 26.70                                                             
C 13.42  0.00 38.56                                                             
C 13.42  0.00 50.43                                                             
C  1.34 11.62  2.97                                                             
C  1.34 11.62 14.83                                                             
C  1.34 11.62 26.70                                                             
C  1.34 11.62 38.56                                                             
C  1.34 11.62 50.43                                                             
C  5.37  9.30  2.97                                                             
C  5.37  9.30 14.83                                                             
C  5.37  9.30 26.70                                                             
C  5.37  9.30 38.56                                                             
C  5.37  9.30 50.43                                                             
C  9.39  6.97  2.97                                                             
C  9.39  6.97 14.83                                                             
C  9.39  6.97 26.70                                                             
C  9.39  6.97 38.56                                                             
C  9.39  6.97 50.43                                                             
C 13.42  4.65  2.97                                                             
C 13.42  4.65 14.83                                                             
C 13.42  4.65 26.70                                                             
C 13.42  4.65 38.56                                                             
C 13.42  4.65 50.43                                                             
C 17.45  2.32  2.97                                                             
C 17.45  2.32 14.83                                                             
C 17.45  2.32 26.70                                                             
C 17.45  2.32 38.56                                                             
C 17.45  2.32 50.43                                                             
C 21.47  0.00  2.97                                                             
C 21.47  0.00 14.83                                                             
C 21.47  0.00 26.70                                                             
C 21.47  0.00 38.56                                                             
C 21.47  0.00 50.43                                                             
C  1.34 16.27  2.97                                                             
C  1.34 16.27 14.83                                                             
C  1.34 16.27 26.70                                                             
C  1.34 16.27 38.56                                                             
C  1.34 16.27 50.43                                                             
C  5.37 13.95  2.97                                                             
C  5.37 13.95 14.83                                                             
C  5.37 13.95 26.70                                                             
C  5.37 13.95 38.56                                                             
C  5.37 13.95 50.43                                                             
C  9.39 11.62  2.97                                                             
C  9.39 11.62 14.83                                                             
C  9.39 11.62 26.70                                                             
C  9.39 11.62 38.56                                                             
C  9.39 11.62 50.43                                                             
C 13.42  9.30  2.97                                                             
C 13.42  9.30 14.83                                                             
C 13.42  9.30 26.70                                                             
C 13.42  9.30 38.56                                                             
C 13.42  9.30 50.43                                                             
C 17.45  6.97  2.97                                                             
C 17.45  6.97 14.83                                                             
C 17.45  6.97 26.70                                                             
C 17.45  6.97 38.56                                                             
C 17.45  6.97 50.43                                                             
C 21.47  4.65  2.97                                                             
C 21.47  4.65 14.83                                                             
C 21.47  4.65 26.70                                                             
C 21.47  4.65 38.56                                                             
C 21.47  4.65 50.43                                                             
C 25.50  2.32  2.97                                                             
C 25.50  2.32 14.83                                                             
C 25.50  2.32 26.70                                                             
C 25.50  2.32 38.56                                                             
C 25.50  2.32 50.43                                                             
C 29.52  0.00  2.97                                                             
C 29.52  0.00 14.83                                                             
C 29.52  0.00 26.70                                                             
C 29.52  0.00 38.56                                                             
C 29.52  0.00 50.43                                                             
C  9.39 16.27  2.97                                                             
C  9.39 16.27 14.83                                                             
C  9.39 16.27 26.70                                                             
C  9.39 16.27 38.56                                                             
C  9.39 16.27 50.43                                                             
C 13.42 13.95  2.97                                                             
C 13.42 13.95 14.83                                                             
C 13.42 13.95 26.70                                                             
C 13.42 13.95 38.56                                                             
C 13.42 13.95 50.43                                                             
C 17.45 11.62  2.97                                                             
C 17.45 11.62 14.83                                                             
C 17.45 11.62 26.70                                                             
C 17.45 11.62 38.56                                                             
C 17.45 11.62 50.43                                                             
C 21.47  9.30  2.97                                                             
C 21.47  9.30 14.83                                                             
C 21.47  9.30 26.70                                                             
C 21.47  9.30 38.56                                                             
C 21.47  9.30 50.43                                                             
C 25.50  6.97  2.97                                                             
C 25.50  6.97 14.83                                                             
C 25.50  6.97 26.70                                                             
C 25.50  6.97 38.56                                                             
C 25.50  6.97 50.43                                                             
C 29.52  4.65  2.97                                                             
C 29.52  4.65 14.83                                                             
C 29.52  4.65 26.70                                                             
C 29.52  4.65 38.56                                                             
C 29.52  4.65 50.43                                                             
C 17.45 16.27  2.97                                                             
C 17.45 16.27 14.83                                                             
C 17.45 16.27 26.70                                                             
C 17.45 16.27 38.56                                                             
C 17.45 16.27 50.43                                                             
C 21.47 13.95  2.97                                                             
C 21.47 13.95 14.83                                                             
C 21.47 13.95 26.70                                                             
C 21.47 13.95 38.56                                                             
C 21.47 13.95 50.43                                                             
C 25.50 11.62  2.97                                                             
C 25.50 11.62 14.83                                                             
C 25.50 11.62 26.70                                                             
C 25.50 11.62 38.56                                                             
C 25.50 11.62 50.43                                                             
C 29.52  9.30  2.97                                                             
C 29.52  9.30 14.83                                                             
C 29.52  9.30 26.70                                                             
C 29.52  9.30 38.56                                                             
C 29.52  9.30 50.43                                                             
C 25.50 16.27  2.97                                                             
C 25.50 16.27 14.83                                                             
C 25.50 16.27 26.70                                                             
C 25.50 16.27 38.56                                                             
C 25.50 16.27 50.43                                                             
C 29.52 13.95  2.97                                                             
C 29.52 13.95 14.83                                                             
C 29.52 13.95 26.70                                                             
C 29.52 13.95 38.56                                                             
C 29.52 13.95 50.43                                                             
C  2.68  0.00  8.90                                                             
C  2.68  0.00 20.76                                                             
C  2.68  0.00 32.63                                                             
C  2.68  0.00 44.49                                                             
C  2.68  0.00 56.36                                                             
C  2.68  4.65  8.90                                                             
C  2.68  4.65 20.76                                                             
C  2.68  4.65 32.63                                                             
C  2.68  4.65 44.49                                                             
C  2.68  4.65 56.36                                                             
C  6.71  2.32  8.90                                                             
C  6.71  2.32 20.76                                                             
C  6.71  2.32 32.63                                                             
C  6.71  2.32 44.49                                                             
C  6.71  2.32 56.36                                                             
C 10.74  0.00  8.90                                                             
C 10.74  0.00 20.76                                                             
C 10.74  0.00 32.63                                                             
C 10.74  0.00 44.49                                                             
C 10.74  0.00 56.36                                                             
C  2.68  9.30  8.90                                                             
C  2.68  9.30 20.76                                                             
C  2.68  9.30 32.63                                                             
C  2.68  9.30 44.49                                                             
C  2.68  9.30 56.36                                                             
C  6.71  6.97  8.90                                                             
C  6.71  6.97 20.76                                                             
C  6.71  6.97 32.63                                                             
C  6.71  6.97 44.49                                                             
C  6.71  6.97 56.36                                                             
C 10.74  4.65  8.90                                                             
C 10.74  4.65 20.76                                                             
C 10.74  4.65 32.63                                                             
C 10.74  4.65 44.49                                                             
C 10.74  4.65 56.36                                                             
C 14.76  2.32  8.90                                                             
C 14.76  2.32 20.76                                                             
C 14.76  2.32 32.63                                                             
C 14.76  2.32 44.49                                                             
C 14.76  2.32 56.36                                                             
C 18.79  0.00  8.90                                                             
C 18.79  0.00 20.76                                                             
C 18.79  0.00 32.63                                                             
C 18.79  0.00 44.49                                                             
C 18.79  0.00 56.36                                                             
C  2.68 13.95  8.90                                                             
C  2.68 13.95 20.76                                                             
C  2.68 13.95 32.63                                                             
C  2.68 13.95 44.49                                                             
C  2.68 13.95 56.36                                                             
C  6.71 11.62  8.90                                                             
C  6.71 11.62 20.76                                                             
C  6.71 11.62 32.63                                                             
C  6.71 11.62 44.49                                                             
C  6.71 11.62 56.36                                                             
C 10.74  9.30  8.90                                                             
C 10.74  9.30 20.76                                                             
C 10.74  9.30 32.63                                                             
C 10.74  9.30 44.49                                                             
C 10.74  9.30 56.36                                                             
C 14.76  6.97  8.90                                                             
C 14.76  6.97 20.76                                                             
C 14.76  6.97 32.63                                                             
C 14.76  6.97 44.49                                                             
C 14.76  6.97 56.36                                                             
C 18.79  4.65  8.90                                                             
C 18.79  4.65 20.76                                                             
C 18.79  4.65 32.63                                                             
C 18.79  4.65 44.49                                                             
C 18.79  4.65 56.36                                                             
C 22.81  2.32  8.90                                                             
C 22.81  2.32 20.76                                                             
C 22.81  2.32 32.63                                                             
C 22.81  2.32 44.49                                                             
C 22.81  2.32 56.36                                                             
C 26.84  0.00  8.90                                                             
C 26.84  0.00 20.76                                                             
C 26.84  0.00 32.63                                                             
C 26.84  0.00 44.49                                                             
C 26.84  0.00 56.36                                                             
C  6.71 16.27  8.90                                                             
C  6.71 16.27 20.76                                                             
C  6.71 16.27 32.63                                                             
C  6.71 16.27 44.49                                                             
C  6.71 16.27 56.36                                                             
C 10.74 13.95  8.90                                                             
C 10.74 13.95 20.76                                                             
C 10.74 13.95 32.63                                                             
C 10.74 13.95 44.49                                                             
C 10.74 13.95 56.36                                                             
C 14.76 11.62  8.90                                                             
C 14.76 11.62 20.76                                                             
C 14.76 11.62 32.63                                                             
C 14.76 11.62 44.49                                                             
C 14.76 11.62 56.36                                                             
C 18.79  9.30  8.90                                                             
C 18.79  9.30 20.76                                                             
C 18.79  9.30 32.63                                                             
C 18.79  9.30 44.49                                                             
C 18.79  9.30 56.36                                                             
C 22.81  6.97  8.90                                                             
C 22.81  6.97 20.76                                                             
C 22.81  6.97 32.63                                                             
C 22.81  6.97 44.49                                                             
C 22.81  6.97 56.36                                                             
C 26.84  4.65  8.90                                                             
C 26.84  4.65 20.76                                                             
C 26.84  4.65 32.63                                                             
C 26.84  4.65 44.49                                                             
C 26.84  4.65 56.36                                                             
C 30.86  2.32  8.90                                                             
C 30.86  2.32 20.76                                                             
C 30.86  2.32 32.63                                                             
C 30.86  2.32 44.49                                                             
C 30.86  2.32 56.36                                                             
C 14.76 16.27  8.90                                                             
C 14.76 16.27 20.76                                                             
C 14.76 16.27 32.63                                                             
C 14.76 16.27 44.49                                                             
C 14.76 16.27 56.36                                                             
C 18.79 13.95  8.90                                                             
C 18.79 13.95 20.76                                                             
C 18.79 13.95 32.63                                                             
C 18.79 13.95 44.49                                                             
C 18.79 13.95 56.36                                                             
C 22.81 11.62  8.90                                                             
C 22.81 11.62 20.76                                                             
C 22.81 11.62 32.63                                                             
C 22.81 11.62 44.49                                                             
C 22.81 11.62 56.36                                                             
C 26.84  9.30  8.90                                                             
C 26.84  9.30 20.76                                                             
C 26.84  9.30 32.63                                                             
C 26.84  9.30 44.49                                                             
C 26.84  9.30 56.36                                                             
C 30.86  6.97  8.90                                                             
C 30.86  6.97 20.76                                                             
C 30.86  6.97 32.63                                                             
C 30.86  6.97 44.49                                                             
C 30.86  6.97 56.36                                                             
C 22.81 16.27  8.90                                                             
C 22.81 16.27 20.76                                                             
C 22.81 16.27 32.63                                                             
C 22.81 16.27 44.49                                                             
C 22.81 16.27 56.36                                                             
C 26.84 13.95  8.90                                                             
C 26.84 13.95 20.76                                                             
C 26.84 13.95 32.63                                                             
C 26.84 13.95 44.49                                                             
C 26.84 13.95 56.36                                                             
C 30.86 11.62  8.90                                                             
C 30.86 11.62 20.76                                                             
C 30.86 11.62 32.63                                                             
C 30.86 11.62 44.49                                                             
C 30.86 11.62 56.36                                                             
C 30.86 16.27  8.90                                                             
C 30.86 16.27 20.76                                                             
C 30.86 16.27 32.63                                                             
C 30.86 16.27 44.49                                                             
C 30.86 16.27 56.36                                                             
%ENDBLOCK POSITIONS_ABS                                                         

--------------------------------------------------------------------------------
-------------------------------- END INPUT FILE --------------------------------
--------------------------------------------------------------------------------


 
<<<<<<<<<<<<<<<<<<<<<<<<<<<<<<<<< Full system >>>>>>>>>>>>>>>>>>>>>>>>>>>>>>>>>>
<<<<<<<<<<<<<<<<<<<<<<<<<<< PAW Dataset information >>>>>>>>>>>>>>>>>>>>>>>>>>>
File: ~/pp/paw/c_pbe_abinit.paw; rc = 1.25 bohr; shape type =  3; rshape = 1.25 bohr;
  Atomic number:  6;  ionic charge:  4.000000
    Partial Wave 1: l = 0
    Partial Wave 2: l = 0
    Partial Wave 3: l = 1
    Partial Wave 4: l = 1
  Core charge supplied for Nonlinear Core Corrections
<<<<<<<<<<<<<<<<<<<<<<<<<<<<<<<<<<<<<<< >>>>>>>>>>>>>>>>>>>>>>>>>>>>>>>>>>>>>>>

-------------------------- Atom counting information ---------------------------
Symbol    Natoms    Nngwfs    Nprojs
  C        640      2560      5120
.......   ......    ......    ......
Totals:    640      2560      5120
--------------------------------------------------------------------------------

=============================== PSINC grid sizes ===============================
                      Simulation cell:   63 x  35 x 117
                              FFT-box:   63 x  35 x 117
                                  PPD:    7 x   5 x   1
Grid space d1=  0.511269841270a0 (KE cutoff=  29.06054Eh = 790.77748eV)
Grid space d2=  0.531142857143a0 (KE cutoff=  26.92659Eh = 732.70972eV)
Grid space d3=  0.507094017094a0 (KE cutoff=  29.54112Eh = 803.85491eV)
================================================================================
  
WARNING in cell_grid_distribute:
Average of less than one 23-slab per node, so workload cannot be
equally balanced between nodes.

********************* Fourier parallelisation information **********************
       Coarse grid (whole simulation cell) dimensions:     63    35   117
          Real-space ('12') slabs/node (min max mean):      2     3     2
         Recip-space ('23') slabs/node (min max mean):      0     1     0
********************************************************************************

********************* Fourier parallelisation information **********************
       Double grid (whole simulation cell) dimensions:    126    70   234
          Real-space ('12') slabs/node (min max mean):      5     6     5
         Recip-space ('23') slabs/node (min max mean):      1     2     1
********************************************************************************

Atom SCF Calculation for C  : Z (AE atom) =   6 : Z (PS atom) =   4
Config String: 2s2 2p2
Orbitals (num,occ):  2     2.00 2.00
Orbitals   (num,l):  2        0    1
Real-space Grid (nr,dr,rmax): 1293    0.0069659443    9.0000000000
Spherical Bessel Basis (nsws,lmax,cutoff):   37    2  161.4736382572
Confining potential (l,width,scale):  0    3.0000000000  100.0000000000
Confining potential (l,width,scale):  1    3.0000000000  100.0000000000
  1         -5.4468762137   -1.3311033486    4.5135257941   -1.6400141247
  2         -5.4563922850   -1.3925089082    4.4492606193   -1.6178955363
  3         -5.4591606672   -1.4162756486    4.4239316220   -1.6104942496
  4         -5.4639338613   -1.4240698331    4.4156521757   -1.6083566999
  5         -5.4657436445   -1.4272842389    4.4122438165   -1.6075116305
  6         -5.4665049591   -1.4285796230    4.4108740217   -1.6071800157
  7         -5.4668137280   -1.4291083664    4.4103163978   -1.6070462938
  8         -5.4669397753   -1.4293243321    4.4100892688   -1.6069921003
  9         -5.4669910134   -1.4294128082    4.4099964732   -1.6069700140
 10         -5.4670118707   -1.4294491026    4.4099585094   -1.6069609935
 11         -5.4670203648   -1.4294640137    4.4099429536   -1.6069573023
 12         -5.4670238269   -1.4294701480    4.4099365706   -1.6069557895
 13         -5.4670252393   -1.4294726750    4.4099339478   -1.6069551687
 14         -5.4670258160   -1.4294737172    4.4099328686   -1.6069549136
 15         -5.4670260518   -1.4294741476    4.4099324241   -1.6069548086
 16         -5.4670261483   -1.4294743256    4.4099322407   -1.6069547654
Atom SCF converged after  16 iterations to a total energy of     -5.46702615

Determining parallel strategy ...
... using space-filling curve
... NGWF load balancing: max     64;  min     64;  average     64
... Projector load balancing: max    128;  min    128;  average    128
... done
Calculating Ewald energy ...
              Ewald: real-space energy =    9541.114561
        Ewald: reciprocal-space energy =       0.037175
         Ewald: (sum_charge)**2 Energy =   11566.672950
         Ewald: (sum_charge**2) Energy =     914.425787
                          Ewald Energy =   -2939.947001
Basis initialisation ...... NGWF spheres initialised
... Projector spheres initialised
... NGWF tight boxes initialised
... Projector tight boxes initialised
... Tight-boxes gathered
... NGWF basis size (local,global):     693940  27896096
... PAW projector initialisation
... done

============================= Charge Augmentation ==============================
                           Aug box size:   11 x  11 x  11
================================================================================

========================== Sparse matrix information ===========================
                        Overlap matrix filling:  45.12%
                        Density kernel filling: 100.00%
              NGWF-Proj overlap matrix filling:  13.12%
                    Aug Overlap matrix filling:  48.25%
                    Hamiltonian matrix filling:  48.25%
                  NGWF diagonal matrix filling:   0.16%
                             KS matrix filling: 100.00% 
                           KSKS matrix filling: 100.00% 
================================================================================

Sparse matrix initialisation ... done
NGWF initialisation ...... done
============ Calculation of NGWF S^-1 using Hotelling algorithm ================ 
         Iteration  |  Frobenius norm and Maximum abs value    (of I-S*S_n^-1)   
               1       0.49255731E+02     0.97850808E+00
               2       0.48160966E+02     0.95877988E+00
               3       0.46476972E+02     0.92364359E+00
               4       0.44229843E+02     0.86590275E+00
               5       0.41491212E+02     0.77969331E+00
               6       0.38237198E+02     0.69183750E+00
               7       0.34720015E+02     0.64109335E+00
               8       0.31345511E+02     0.59929456E+00
               9       0.27902294E+02     0.55813554E+00
              10       0.23682783E+02     0.49733629E+00
              11       0.18157321E+02     0.39861243E+00
              12       0.11505882E+02     0.26060691E+00
              13       0.52136742E+01     0.11725569E+00
              14       0.12725683E+01     0.26697449E-01
              15       0.90118248E-01     0.16740762E-02
              16       0.55584133E-03     0.82884616E-05
              17       0.30937885E-07     0.29449909E-09
              18       0.85878639E-13     0.51070259E-14
================================================================================
Calculating core density ...
================================= Core Density =================================
               Core den box size:   21 x  21 x  21
================================================================================
 ... done
Up spin density kernel initialisation ...... done

Writing density kernel to file "3.1393504_GO_manual_4x64graphite.dkn" ... done

>>> Optimising kernel for current NGWFs:

--------------------------- Ensemble-DFT optimisation --------------------------
Running ScaLAPACK on   40 processor(s).

--------------------------------------------------------------------------------
  Iter                              Commutator    Free_energy(A=E-TS)     DeltaA
#    0                          0.000052703652   -3654.06568881351859  -3.65E+03

Step                       =       0.381966011250
Energy                     =   -3654.065645849881
Entropy (-TS)              =      -0.000042963663
Free energy (A=E-TS)       =   -3654.065688813519
Est. 0K Energy 0.5*(E+A)   =   -3654.065667331700
Residual Non-orthogonality =       0.000000000000
Residual N_electrons       =       0.000000000025

Spin          Integrated_Ne            Fermi_level     Delta_Fermi_level
   1      2559.999999999896         0.243584160687              2.44E-01

                           Spin 1          
     Orb      H-eigenvalues     Occupancies
       1 |    -0.4797624257    1.0000000000 | 
                          ------
    1276 |     0.2110616983    0.9999653363 | 
    1277 |     0.2116557046    0.9999581848 | 
    1278 |     0.2116679134    0.9999580233 | 
    1279 |     0.2119952896    0.9999534519 | 
    1280 |     0.2125861999    0.9999439036 | 
                 - Gap at zero temperature -
    1281 |     0.2768119015    0.0000277432 | 
    1282 |     0.2768237085    0.0000276400 | 
    1283 |     0.2769538427    0.0000265272 | 
    1284 |     0.2770427135    0.0000257932 | 
    1285 |     0.2770544778    0.0000256975 | 
                          ------
    2560 |     1.0739400988    0.0000000000 | 

                       |  Abs_value |  Threshold | Converged
     Delta_Free_energy |   3.65E+03 |   1.00E-06 |        No
     Delta_Energy      |   3.65E+03 |   1.00E-04 |        No
     Delta_Entropy     |   4.30E-05 |   1.00E-04 |       Yes
     Commutator        |   5.27E-05 |   1.00E-05 |        No
     Delta_Fermi_level |   2.44E-01 |   1.00E-03 |        No

  Line search of the free energy minimum:
  Step_type        Step             Free_energy   Predicted_free_energy
.   Initial    0.000000    -3654.06568881351859
.    Trial1    0.381966    -3654.06846919019472
.    Trial2    0.618034    -3654.06798020047199
. Quadratic    0.431544    -3654.06850562020145    -3654.06850637850812

--------------------------------------------------------------------------------
  Iter                              Commutator    Free_energy(A=E-TS)     DeltaA
#    1                          0.000023339870   -3654.06850562020145  -2.82E-03

Step                       =       0.431544315801
Energy                     =   -3654.068463653968
Entropy (-TS)              =      -0.000041966156
Free energy (A=E-TS)       =   -3654.068505620201
Est. 0K Energy 0.5*(E+A)   =   -3654.068484637085
Residual Non-orthogonality =       0.000000000000
Residual N_electrons       =      -0.000000000077

Spin          Integrated_Ne            Fermi_level     Delta_Fermi_level
   1      2560.000000000315         0.245920704083              2.34E-03

                           Spin 1          
     Orb      H-eigenvalues     Occupancies
       1 |    -0.4783350037    1.0000000000 | 
                          ------
    1276 |     0.2133884343    0.9999654434 | 
    1277 |     0.2138610276    0.9999598820 | 
    1278 |     0.2138765814    0.9999596845 | 
    1279 |     0.2143456739    0.9999532480 | 
    1280 |     0.2148189040    0.9999457130 | 
                 - Gap at zero temperature -
    1281 |     0.2792136603    0.0000271778 | 
    1282 |     0.2792517863    0.0000268525 | 
    1283 |     0.2793935016    0.0000256774 | 
    1284 |     0.2795207510    0.0000246661 | 
    1285 |     0.2795378419    0.0000245333 | 
                          ------
    2560 |     1.0778877451    0.0000000000 | 

                       |  Abs_value |  Threshold | Converged
     Delta_Free_energy |   2.82E-03 |   1.00E-06 |        No
     Delta_Energy      |   2.82E-03 |   1.00E-04 |        No
     Delta_Entropy     |   9.98E-07 |   1.00E-04 |       Yes
     Commutator        |   2.33E-05 |   1.00E-05 |        No
     Delta_Fermi_level |   2.34E-03 |   1.00E-03 |        No

  Line search of the free energy minimum:
  Step_type        Step             Free_energy   Predicted_free_energy
.   Initial    0.000000    -3654.06850562020145
.    Trial1    0.431544    -3654.06891487715257
.    Trial2    0.648675    -3654.06844888607156
. Quadratic    0.315171    -3654.06898001057334    -3654.06897948293090

--------------------------------------------------------------------------------
  Iter                              Commutator    Free_energy(A=E-TS)     DeltaA
#    2                          0.000016166533   -3654.06898001057334  -4.74E-04

Step                       =       0.315170560406
Energy                     =   -3654.068938648109
Entropy (-TS)              =      -0.000041362637
Free energy (A=E-TS)       =   -3654.068980010573
Est. 0K Energy 0.5*(E+A)   =   -3654.068959329341
Residual Non-orthogonality =       0.000000000000
Residual N_electrons       =       0.000000000172

Spin          Integrated_Ne            Fermi_level     Delta_Fermi_level
   1      2559.999999999302         0.246818685296              8.98E-04

                           Spin 1          
     Orb      H-eigenvalues     Occupancies
       1 |    -0.4777536291    1.0000000000 | 
                          ------
    1276 |     0.2142237766    0.9999661202 | 
    1277 |     0.2147231985    0.9999603331 | 
    1278 |     0.2147411768    0.9999601073 | 
    1279 |     0.2151710826    0.9999543071 | 
    1280 |     0.2156733373    0.9999464544 | 
                 - Gap at zero temperature -
    1281 |     0.2801635639    0.0000267358 | 
    1282 |     0.2802036372    0.0000263996 | 
    1283 |     0.2803425724    0.0000252665 | 
    1284 |     0.2804787075    0.0000242034 | 
    1285 |     0.2804823363    0.0000241756 | 
                          ------
    2560 |     1.0795016445    0.0000000000 | 

                       |  Abs_value |  Threshold | Converged
     Delta_Free_energy |   4.74E-04 |   1.00E-06 |        No
     Delta_Energy      |   4.75E-04 |   1.00E-04 |        No
     Delta_Entropy     |   6.04E-07 |   1.00E-04 |       Yes
     Commutator        |   1.62E-05 |   1.00E-05 |        No
     Delta_Fermi_level |   8.98E-04 |   1.00E-03 |       Yes

  Line search of the free energy minimum:
  Step_type        Step             Free_energy   Predicted_free_energy
.   Initial    0.000000    -3654.06898001057334
.    Trial1    0.315171    -3654.06916351636028
.    Trial2    0.576752    -3654.06883433321582
. Quadratic    0.248804    -3654.06917767238519    -3654.06917757301426

--------------------------------------------------------------------------------
  Iter                              Commutator    Free_energy(A=E-TS)     DeltaA
#    3                          0.000011233793   -3654.06917767238519  -1.98E-04

Step                       =       0.248804382083
Energy                     =   -3654.069136616646
Entropy (-TS)              =      -0.000041056241
Free energy (A=E-TS)       =   -3654.069177672385
Est. 0K Energy 0.5*(E+A)   =   -3654.069157144515
Residual Non-orthogonality =       0.000000000000
Residual N_electrons       =       0.000000000502

Spin          Integrated_Ne            Fermi_level     Delta_Fermi_level
   1      2559.999999997972         0.247308571931              4.90E-04

                           Spin 1          
     Orb      H-eigenvalues     Occupancies
       1 |    -0.4774350750    1.0000000000 | 
                          ------
    1276 |     0.2146875599    0.9999663983 | 
    1277 |     0.2151897310    0.9999606245 | 
    1278 |     0.2152079631    0.9999603972 | 
    1279 |     0.2156325602    0.9999547152 | 
    1280 |     0.2161377937    0.9999468826 | 
                 - Gap at zero temperature -
    1281 |     0.2806784635    0.0000265255 | 
    1282 |     0.2807185623    0.0000261917 | 
    1283 |     0.2808580785    0.0000250629 | 
    1284 |     0.2809923220    0.0000240227 | 
    1285 |     0.2809970684    0.0000239867 | 
                          ------
    2560 |     1.0803829726    0.0000000000 | 

                       |  Abs_value |  Threshold | Converged
     Delta_Free_energy |   1.98E-04 |   1.00E-06 |        No
     Delta_Energy      |   1.98E-04 |   1.00E-04 |        No
     Delta_Entropy     |   3.06E-07 |   1.00E-04 |       Yes
     Commutator        |   1.12E-05 |   1.00E-05 |        No
     Delta_Fermi_level |   4.90E-04 |   1.00E-03 |       Yes

  Line search of the free energy minimum:
  Step_type        Step             Free_energy   Predicted_free_energy
.   Initial    0.000000    -3654.06917767238519
.    Trial1    0.248804    -3654.06927212919163
.    Trial2    0.535736    -3654.06919755184617
. Quadratic    0.283409    -3654.06927354733944    -3654.06927355876451

--------------------------------------------------------------------------------
  Iter                              Commutator    Free_energy(A=E-TS)     DeltaA
#    4                          0.000008461023   -3654.06927354733944  -9.59E-05

Step                       =       0.283409385547
Energy                     =   -3654.069232747598
Entropy (-TS)              =      -0.000040799807
Free energy (A=E-TS)       =   -3654.069273547339
Est. 0K Energy 0.5*(E+A)   =   -3654.069253147469
Residual Non-orthogonality =       0.000000000000
Residual N_electrons       =       0.000000000065

Spin          Integrated_Ne            Fermi_level     Delta_Fermi_level
   1      2559.999999999737         0.247726190018              4.18E-04

                           Spin 1          
[...]
 C   160 -- C   385       -0.09      5.37000
 C   159 -- C   384       -0.09      5.37000
 C   158 -- C   383       -0.09      5.37000
 C   157 -- C   382       -0.09      5.37000
 C   156 -- C   381       -0.09      5.37000
 C   155 -- C   355       -0.09      5.37000
 C   154 -- C   354       -0.09      5.37000
 C   153 -- C   353       -0.09      5.37000
 C   152 -- C   352       -0.09      5.37000
 C   151 -- C   351       -0.09      5.37000
 C   140 -- C   335       -0.09      5.37000
 C   139 -- C   334       -0.09      5.37000
 C   138 -- C   333       -0.09      5.37000
 C   137 -- C   332       -0.09      5.37000
 C   136 -- C   331       -0.09      5.37000
 C   115 -- C   325       -0.09      5.37000
 C   114 -- C   324       -0.09      5.37000
 C   113 -- C   323       -0.09      5.37000
 C   112 -- C   322       -0.09      5.37000
 C   111 -- C   321       -0.09      5.37000
 C   219 -- C   569       -0.09      5.37202
 C   218 -- C   568       -0.09      5.37202
 C   217 -- C   567       -0.09      5.37202
 C   216 -- C   566       -0.09      5.37202
 C   285 -- C   580       -0.09      5.37202
 C   284 -- C   579       -0.09      5.37202
 C   283 -- C   578       -0.09      5.37202
 C   282 -- C   577       -0.09      5.37202
 C   281 -- C   576       -0.09      5.37202
 C   260 -- C   605       -0.09      5.37202
 C   259 -- C   604       -0.09      5.37202
 C   258 -- C   603       -0.09      5.37202
 C   257 -- C   602       -0.09      5.37202
 C   256 -- C   601       -0.09      5.37202
 C   250 -- C   540       -0.09      5.37202
 C   249 -- C   539       -0.09      5.37202
 C   248 -- C   538       -0.09      5.37202
 C   247 -- C   537       -0.09      5.37202
 C   246 -- C   536       -0.09      5.37202
 C   220 -- C   570       -0.09      5.37202
 C   220 -- C   515       -0.09      5.37202
 C   219 -- C   514       -0.09      5.37202
 C   218 -- C   513       -0.09      5.37202
 C   217 -- C   512       -0.09      5.37202
 C   216 -- C   511       -0.09      5.37202
 C    95 -- C   425       -0.09      5.37202
 C    94 -- C   424       -0.09      5.37202
 C    93 -- C   423       -0.09      5.37202
 C   195 -- C   540       -0.09      5.37202
 C   195 -- C   500       -0.09      5.37202
 C   194 -- C   539       -0.09      5.37202
 C    92 -- C   422       -0.09      5.37202
 C   194 -- C   499       -0.09      5.37202
 C   193 -- C   538       -0.09      5.37202
 C   193 -- C   498       -0.09      5.37202
 C   192 -- C   537       -0.09      5.37202
 C    91 -- C   421       -0.09      5.37202
 C   192 -- C   497       -0.09      5.37202
 C   191 -- C   536       -0.09      5.37202
 C   191 -- C   496       -0.09      5.37202
 C    85 -- C   355       -0.09      5.37202
 C   180 -- C   515       -0.09      5.37202
 C    84 -- C   354       -0.09      5.37202
 C   179 -- C   514       -0.09      5.37202
 C    83 -- C   353       -0.09      5.37202
 C   178 -- C   513       -0.09      5.37202
 C   177 -- C   512       -0.09      5.37202
 C    82 -- C   352       -0.09      5.37202
 C   176 -- C   511       -0.09      5.37202
 C    81 -- C   351       -0.09      5.37202
 C   120 -- C   395       -0.09      5.37202
 C    55 -- C   385       -0.09      5.37202
 C   119 -- C   394       -0.09      5.37202
 C   118 -- C   393       -0.09      5.37202
 C   117 -- C   392       -0.09      5.37202
 C    54 -- C   384       -0.09      5.37202
 C   116 -- C   391       -0.09      5.37202
 C    53 -- C   383       -0.09      5.37202
 C    52 -- C   382       -0.09      5.37202
 C    51 -- C   381       -0.09      5.37202
 C   205 -- C   550       -0.09      5.37202
 C   204 -- C   549       -0.09      5.37202
 C   203 -- C   548       -0.09      5.37202
 C   202 -- C   547       -0.09      5.37202
 C   201 -- C   546       -0.09      5.37202
 C    95 -- C   365       -0.09      5.37202
 C    94 -- C   364       -0.09      5.37202
 C    93 -- C   363       -0.09      5.37202
 C    92 -- C   362       -0.09      5.37202
 C    91 -- C   361       -0.09      5.37202
 C    65 -- C   395       -0.09      5.37202
 C    64 -- C   394       -0.09      5.37202
 C    63 -- C   393       -0.09      5.37202
 C    30 -- C   355       -0.09      5.37202
 C    62 -- C   392       -0.09      5.37202
 C    61 -- C   391       -0.09      5.37202
 C    29 -- C   354       -0.09      5.37202
 C   260 -- C   550       -0.09      5.37202
 C   259 -- C   549       -0.09      5.37202
 C    28 -- C   353       -0.09      5.37202
 C   258 -- C   548       -0.09      5.37202
 C   257 -- C   547       -0.09      5.37202
 C   256 -- C   546       -0.09      5.37202
 C    27 -- C   352       -0.09      5.37202
 C    26 -- C   351       -0.09      5.37202
 C    55 -- C   335       -0.09      5.37202
 C    54 -- C   334       -0.09      5.37202
 C    53 -- C   333       -0.09      5.37202
 C   230 -- C   580       -0.09      5.37202
 C   230 -- C   525       -0.09      5.37202
 C   229 -- C   579       -0.09      5.37202
 C   229 -- C   524       -0.09      5.37202
 C   228 -- C   578       -0.09      5.37202
 C    52 -- C   332       -0.09      5.37202
 C   228 -- C   523       -0.09      5.37202
 C   227 -- C   577       -0.09      5.37202
 C   227 -- C   522       -0.09      5.37202
 C   226 -- C   576       -0.09      5.37202
 C   226 -- C   521       -0.09      5.37202
 C    51 -- C   331       -0.09      5.37202
 C    23 -- C   478       -0.09      5.37202
 C    49 -- C   469       -0.09      5.37202
 C    11 -- C   331       -0.09      5.37202
 C    48 -- C   468       -0.09      5.37202
 C    47 -- C   467       -0.09      5.37202
 C    22 -- C   477       -0.09      5.37202
 C    46 -- C   466       -0.09      5.37202
 C    21 -- C   476       -0.09      5.37202
 C    40 -- C   365       -0.09      5.37202
 C    39 -- C   364       -0.09      5.37202
 C    38 -- C   363       -0.09      5.37202
 C    37 -- C   362       -0.09      5.37202
 C    36 -- C   361       -0.09      5.37202
 C    15 -- C   335       -0.09      5.37202
 C    65 -- C   345       -0.09      5.37202
 C    64 -- C   344       -0.09      5.37202
 C    63 -- C   343       -0.09      5.37202
 C    30 -- C   325       -0.09      5.37202
 C    14 -- C   334       -0.09      5.37202
 C    62 -- C   342       -0.09      5.37202
 C    61 -- C   341       -0.09      5.37202
 C    29 -- C   324       -0.09      5.37202
 C    28 -- C   323       -0.09      5.37202
 C    13 -- C   333       -0.09      5.37202
 C    27 -- C   322       -0.09      5.37202
 C    26 -- C   321       -0.09      5.37202
 C    25 -- C   480       -0.09      5.37202
 C    12 -- C   332       -0.09      5.37202
 C    24 -- C   479       -0.09      5.37202
 C    50 -- C   470       -0.09      5.37202
 C    24 -- C   449       -0.09      5.37202
 C     6 -- C   416       -0.09      5.37202
 C    23 -- C   448       -0.09      5.37202
 C    22 -- C   447       -0.09      5.37202
 C    10 -- C   470       -0.09      5.37202
 C     5 -- C   450       -0.09      5.37202
 C    21 -- C   446       -0.09      5.37202
 C    10 -- C   420       -0.09      5.37202
 C     9 -- C   469       -0.09      5.37202
 C     9 -- C   419       -0.09      5.37202
 C     8 -- C   468       -0.09      5.37202
 C     4 -- C   449       -0.09      5.37202
 C   150 -- C   440       -0.09      5.37202
 C   149 -- C   439       -0.09      5.37202
 C   148 -- C   438       -0.09      5.37202
 C   147 -- C   437       -0.09      5.37202
 C     8 -- C   418       -0.09      5.37202
 C   146 -- C   436       -0.09      5.37202
 C     2 -- C   447       -0.09      5.37202
 C   135 -- C   460       -0.09      5.37202
 C     7 -- C   467       -0.09      5.37202
 C   134 -- C   459       -0.09      5.37202
 C   133 -- C   458       -0.09      5.37202
 C   132 -- C   457       -0.09      5.37202
 C   131 -- C   456       -0.09      5.37202
 C     7 -- C   417       -0.09      5.37202
 C     1 -- C   446       -0.09      5.37202
 C     6 -- C   466       -0.09      5.37202
 C    25 -- C   450       -0.09      5.37202
 C     3 -- C   448       -0.09      5.37202
 C   106 -- C   436       -0.09      5.37202
 C   106 -- C   376       -0.09      5.37202
 C    80 -- C   410       -0.09      5.37202
 C    79 -- C   409       -0.09      5.37202
 C    78 -- C   408       -0.09      5.37202
 C    77 -- C   407       -0.09      5.37202
 C    76 -- C   406       -0.09      5.37202
 C   135 -- C   410       -0.09      5.37202
 C   134 -- C   409       -0.09      5.37202
 C   133 -- C   408       -0.09      5.37202
 C   132 -- C   407       -0.09      5.37202
 C   131 -- C   406       -0.09      5.37202
 C   110 -- C   440       -0.09      5.37202
 C   110 -- C   380       -0.09      5.37202
 C   109 -- C   439       -0.09      5.37202
 C   109 -- C   379       -0.09      5.37202
 C   108 -- C   438       -0.09      5.37202
 C   108 -- C   378       -0.09      5.37202
 C   107 -- C   437       -0.09      5.37202
 C   107 -- C   377       -0.09      5.37202
 C   215 -- C   635       -0.09      5.38000
 C   214 -- C   634       -0.09      5.38000
 C   213 -- C   633       -0.09      5.38000
 C   212 -- C   632       -0.09      5.38000
 C   211 -- C   631       -0.09      5.38000
 C   190 -- C   620       -0.09      5.38000
 C   189 -- C   619       -0.09      5.38000
 C   188 -- C   618       -0.09      5.38000
 C   187 -- C   617       -0.09      5.38000
 C   186 -- C   616       -0.09      5.38000
 C   175 -- C   595       -0.09      5.38000
 C   174 -- C   594       -0.09      5.38000
 C   173 -- C   593       -0.09      5.38000
 C   172 -- C   592       -0.09      5.38000
 C   171 -- C   591       -0.09      5.38000
 C   245 -- C   640       -0.09      5.38000
 C   244 -- C   639       -0.09      5.38000
 C   243 -- C   638       -0.09      5.38000
 C   242 -- C   637       -0.09      5.38000
 C   241 -- C   636       -0.09      5.38000
==================================================


=================== Orbital energy and occupancy information ===================

      Total number of orbitals:    2560
        Occupancy sum (kernel):    1280.000000001
   Occupancy sum (eigenvalues):    1280.000000001
                 HOMO-LUMO gap:       0.000007095 Eh
                 Mid-gap level:       0.316381715 Eh

                        Orbital | Energy (Eh) | Occupancy
                            1    -0.441938322   1.0000000
                        .......   ...........   .........
                         1272     0.249357193   0.9999860
                         1273     0.249810784   0.9999838
                         1274     0.249825542   0.9999838
                         1275     0.253656085   0.9999455
                         1276     0.253656261   0.9999455
                         1277     0.253932315   0.9999405
                         1278     0.254088508   0.9999376
                         1279     0.254088555   0.9999376
                         1280     0.254343785   0.9999323
                         1281     0.316378168   0.0000458
                        ....... -- gap at 0K -- .........
                         1282     0.316385262   0.0000457
                         1283     0.316633010   0.0000423
                         1284     0.316639993   0.0000422
                         1285     0.317649877   0.0000308
                         1286     0.317658515   0.0000307
                         1287     0.317923923   0.0000282
                         1288     0.317932611   0.0000282
                         1289     0.318464417   0.0000238
                         1290     0.318746067   0.0000218
                         1291     0.318997980   0.0000199
                        .......   ...........   .........
                         2560     1.173007860   0.0000000

================================================================================

===================== Writing canonical molecular orbitals =====================
| Orbital  Energy (eV)  Norm     |
| HOMO      8.60908801  1.000000 | Writing "3.1393504_GO_manual_4x64graphite_HOMO.cube" ... done
Writing "3.1393504_GO_manual_4x64graphite_HOMO.dx" ... done
| LUMO      8.60928106  1.000000 | Writing "3.1393504_GO_manual_4x64graphite_LUMO.cube" ... done
Writing "3.1393504_GO_manual_4x64graphite_LUMO.dx" ... done
================================================================================
 
===================== Density of States (DOS) calculation ======================
Writing "3.1393504_GO_manual_4x64graphite_DOS.txt" ...  done
================================================================================
 
Writing bands to file "3.1393504_GO_manual_4x64graphite.val_bands" ... done
 
================ Projected Density of States (pDOS) calculation ================
 
Constructing AM resolved functions  ...... done
Writing NGWF plot files in formats: CUBE DX ...  done
 
Performing overlap integrals ...  done
 
Computing pDOS weights ...  done
 
All bands spilling parameter =   3.90 %
Occupancy-weighted spilling parameter =   0.81 %
 
 => Outputting data for OptaDOS <=
 
Writing pDOS weights to file "3.1393504_GO_manual_4x64graphite.val_pdos_bin" ... done
 
Writing band gradients to file "3.1393504_GO_manual_4x64graphite.val_dome_bin" ... done
 
Writing Castep output cell file to "3.1393504_GO_manual_4x64graphite-out.cell" ... done
 
 => Computing Gaussian smeared pDOS <= 
Writing "3.1393504_GO_manual_4x64graphite_PDOS.txt" ...  done
 
 => Computing Occupancy-weighted Gaussian smeared pDOS <= 
Writing "3.1393504_GO_manual_4x64graphite_occ_PDOS.txt" ...  done
  => Band centres: 
 S band centre of group 1:  -15.533121 eV
 P band centre of group 1:   -8.437822 eV
  Band centres done. <=
  => Integrated number of electrons in each AM band: 
 S num electrons of group 1:  574.594772
 P num electrons of group 1: 1964.725751
  Integrated number of electrons done. <=
================================================================================

------------------------------ TIMING INFORMATION ------------------------------
AVERAGE TIME:    4736.125s on     40 node(s)                                    
TOTAL TIME:      4736.126s on     40 node(s)                                    
================= AVERAGE TIMINGS FROM ALL NODES (CUMULATIVE) ==================
|| TAG                                    #calls    cpu time   %total  Gflops ||
|| work_imbalance                       :     1        0.00s   0.000%  ------ ||
|| paw_tcore_hartree_on_grid            :     1        0.01s   0.000%  ------ ||
|| paw_tcore_density                    :     1        0.01s   0.000%  ------ ||
|| paw_sphere_density_on_grid           :     1        0.02s   0.000%  ------ ||
|| sparse_set_to_garbage                :   183        0.04s   0.001%  ------ ||
|| pseudo_make_structure_factor         :     1        0.05s   0.001%  ------ ||
|| paw_dij_hartree                      :   422        0.05s   0.001%  ------ ||
|| basis_extract_function_from_box      :  2048        0.09s   0.002%  ------ ||
|| paw_species_calc_proj_prec_mat       :     1        0.12s   0.003%  ------ ||
|| paw_dataset_init                     :     1        0.28s   0.006%  ------ ||
|| density_init_guess_real              :     1        0.57s   0.012%  ------ ||
|| restart_kernel_write                 :    17        0.96s   0.020%  ------ ||
|| sparse_init                          :     1        0.98s   0.021%  ------ ||
|| dense_normal_eigensolve              :     1        1.09s   0.023%  ------ ||
|| hartree_on_grid                      :   316        1.40s   0.030%  ------ ||
|| ngwfs_initialise_from_radial         :     2        1.82s   0.038%  ------ ||
|| ewald_calculate_energy               :     1        2.34s   0.049%  ------ ||
|| projectors_init_fftbox_recip         :   161        3.16s   0.067%  ------ ||
|| fourier_apply_box_pair               :  3040        5.03s   0.106% 560.376 ||
|| basis_copy_function_to_box           : 29760        6.36s   0.134%  ------ ||
|| sw_init                              :     1        6.73s   0.142%  ------ ||
|| augmentation_screen_dij              :   323        7.32s   0.155%  ------ ||
|| sparse_embed_hotelling_invert_embed  :    31        9.84s   0.208%  ------ ||
|| ngwf_gradient_coeffs                 :    16       12.79s   0.270%  ------ ||
|| fourier_apply_cell_backward          :  9767       16.73s   0.353%  63.850 ||
|| fourier_apply_cell_forward           :  9136       17.44s   0.368%  57.289 ||
|| cell_grid_extract_box_real           : 12668       17.67s   0.373%  ------ ||
|| sparse_trace                         :  3842       22.99s   0.485%  ------ ||
|| cell_grid_deposit_box_real           : 40624       27.62s   0.583%  ------ ||
|| paw_dij_xc                           :   422       28.34s   0.598%  ------ ||
|| aug_nonlocal_mat                     :   406       43.78s   0.924%  ------ ||
|| density_fftbox_deposit_to_cell       : 20224       55.71s   1.176%  ------ ||
|| eigenstates_pdos                     :     1       55.81s   1.178%  ------ ||
|| augmentation_density_on_grid         :   316       58.39s   1.233%  ------ ||
|| eigenstates_calculate                :     1       60.26s   1.272%  ------ ||
|| function_ops_brappd_ketppd           :    64       65.94s   1.392%  ------ ||
|| hamiltonian_energy_components        :     4       69.46s   1.467%  ------ ||
|| nlxc_vdw_energy                      :   630       72.42s   1.529%  ------ ||
|| projectors_func_ovlp_box             :    32       78.69s   1.661%  ------ ||
|| xc_energy_potential                  :   315       85.08s   1.796%  ------ ||
|| properties_calculate                 :     1      105.96s   2.237%  ------ ||
|| integrals_kinetic                    :    31      117.86s   2.489%  ------ ||
|| dense_eigensolve                     :   280      134.59s   2.842%  ------ ||
|| restart_ngwfs_tightbox_output        :    15      142.04s   2.999%  ------ ||
|| potential_apply_to_ngwf_batch        :   404      159.28s   3.363%  ------ ||
|| sparse_product                       :  3799      167.31s   3.533%  ------ ||
|| basis_dot_function_with_box          : 9.990M     270.99s   5.722%  ------ ||
|| fourier_apply_box                    : 93088      290.92s   6.143% 979.688 ||
|| projectors_gradient_batch            :    64      302.39s   6.385%  ------ ||
|| edft_diag_ngwf_ham                   :   279      321.20s   6.782%  ------ ||
|| density_fftbox_interpolate_multiply  : 20224      390.72s   8.250%  ------ ||
|| integrals_locpot_mat_els_batch       :   404      392.09s   8.279%  ------ ||
|| projectors_grad_precond_batch        :    64      443.53s   9.365%  ------ ||
|| density_batch_interp_deposit         :  1264      496.17s  10.476%  ------ ||
|| integrals_locpot_dbl_grid            :   101      553.42s  11.685%  ------ ||
|| edft_apply_smearing_operator         :   279      618.49s  13.059%  ------ ||
|| basis_add_function_to_box            : 28.09M     728.89s  15.390%  ------ ||
|| ngwf_gradient_build_batch            :    64      794.46s  16.775%  ------ ||
|| ngwf_gradient_batch                  :    64     1069.67s  22.585%  ------ ||
|| density_batch_row_sums               :  1264     1094.58s  23.111%  ------ ||
|| ngwf_gradient_lnv                    :    16     1115.12s  23.545%  ------ ||
|| density_on_dbl_grid                  :   316     1607.90s  33.950%  ------ ||
|| hamiltonian_lhxc_calculate           :   310     1724.13s  36.404%  ------ ||
|| edft_calculate                       :    16     2884.90s  60.913%  ------ ||
|| ngwf_cg_optimise                     :     1     4602.26s  97.173%  ------ ||
|| total_time                           :     1     4736.12s 100.000%  ------ ||
================================================================================
Overhead of generating timer report: 
- 0 ms averaging over threads,
- 6 ms ensuring consistency across MPI ranks,
- 0 ms printing in order.

Job completed: 25-02-2020 11:40 (-0000)

