 +---------------------------------------------------------------+
 |                                                               |
 |        ####### #     # ####### ####### ####### ######         |
 |        #     # ##    # #          #    #       #     #        |
 |        #     # # #   # #          #    #       #     #        |
 |        #     # #  #  # #####      #    #####   ######         |
 |        #     # #   # # #          #    #       #              |
 |        #     # #    ## #          #    #       #              |
 |        ####### #     # #######    #    ####### #              |
 |                                                               |
 |        Linear-Scaling Ab Initio Total Energy Program          |
 |                                                               |
 |          Release for academic collaborators of ODG            |
 |                                             Version 5.3.2.12  |
 |                                                               |
 +---------------------------------------------------------------+
 |                                                               |
 |  Authors:                                                     |
 |  Jacek Dziedzic, Peter D. Haynes, Nicholas D. M. Hine,        |
 |  Arash. A. Mostofi, Mike C. Payne and Chris-Kriton Skylaris   |
 |                                                               |
 |  Contributors:                                                |
 |  J. Aarons, L. Andrinopoulos, P. W. Avraam, R. A. Bell,       |
 |  A. Bhandari, G. A. Bramley, R. J. Charlton, S. J. Clark,     |
 |  R. J. Clements, G. C. Constantinescu, F. Corsetti,           |
 |  N. Corsini, O. Dieguez, S. M. M. Dubois, K. K. B. Duff,      |
 |  J. M. Escartin, A. Greco, H. Helal, Q. O. Hill, L. P. Lee,   |
 |  J.-H. Li, E. B. Linscott, G. Moynihan, D. D. O`Regan,        |
 |  O. K. Okan, M. J. S. Phipps, C. J. Pickard,                  |
 |  J. C. A. Prentice, M. I. J. Probert, L. E. Ratcliff,         |
 |  M. Robinson, A. Ruiz Serrano, J. S. Spencer, E. W. Tait,     |
 |  G. Teobaldi, D. Turban, V. Vitale, K. A. Wilkinson,          |
 |  C. Weber, J. C. Womack, N. Yeung and T. J. Zuehlsdorff       |
 |                                                               |
 |                                   Copyright (c) 2004-2020     |
 |                                                               |
 |  Please cite:                                                 |
 |  "Introducing ONETEP: Linear-scaling density functional       |
 |   simulations on parallel computers".                         |
 |   C.-K. Skylaris, P. D. Haynes, A. A. Mostofi, M. C. Payne.   |
 |   J. Chem. Phys. 122 084119 (2005).                           |
 |                                                               |
 |          in all publications arising from your use of ONETEP. |
 |                                                               |
 +---------------------------------------------------------------+
 |                                                               |
 |   ONETEP is based on developments described in the following  |
 |   publications:                                               |
 |                                                               |
 |  "Nonorthogonal generalized Wannier function pseudopotential  |
 |   plane-wave method".                                         |
 |   C.-K. Skylaris, A. A. Mostofi, P. D. Haynes, O. Dieguez,    |
 |   M. C. Payne.                                                |
 |   Phys. Rev. B 66 035119 (2002).                              |
 |                                                               |
 |  "Preconditioned iterative minimization for linear-scaling    |
 |   electronic structure calculations".                         |
 |   A. A. Mostofi, P. D. Haynes, C.-K. Skylaris, M. C. Payne.   |
 |   J. Chem. Phys. 119(17), pp.8842-8848 (2003).                |
 |                                                               |
 |  "Total-energy calculations on a real space grid with         |
 |   localized functions and a plane-wave basis".                |
 |   A. A. Mostofi, C.-K. Skylaris, P. D. Haynes, M. C. Payne.   |
 |   Comput. Phys. Commun. 147, pp.788-802 (2002).               |
 |                                                               |
 |  "Accurate kinetic energy evaluation in electronic structure  |
 |   calculations with localized functions on real space grids"  |
 |   C.-K. Skylaris, A. A. Mostofi, P. D. Haynes, C. J. Pickard, |
 |   M. C. Payne.                                                |
 |   Comput. Phys. Commun. 140, pp.315-322 (2001).               |
 |                                                               |
 |  "Accurate ionic forces and geometry optimization in linear-  |
 |   scaling density-functional theory with local orbitals"      |
 |   N. D. M. Hine, M. Robinson, P. D. Haynes, C.-K. Skylaris,   |
 |   M. C. Payne, and A. A. Mostofi.                             |
 |   Phys. Rev. B 83 195102 (2011).                              |
 |                                                               |
 +---------------------------------------------------------------+

Job started: 25-02-2020 12:24 (-0000)
 
Reading parameters from file "3.2735064_GO_manual_4x64graphite.dat" ...

WARNING: "cutoff_energy" not specified, but "psinc_spacing" specified.
         Using the latter to set the KE cutoff energy to  732.32021eV,
         thus *overriding* the default.

... done

If your calculation crashes here, before "Checking processes and threads..."
is displayed, then your stack size is insufficient.
If so, use "ulimit -s unlimited" at runtime.
You can disable this check with "check_stack_size F".

Checking processes and threads...
   Determining the default number of threads...
      No default threads set at compilation time: defaulting to 1.
      OpenMP library call suggests 4 threads.
      Hybrid MPI-OpenMP compilation detected.
      Number of MPI processes > 1.
      OMP_NUM_THREADS environment variable present and
      its value matches the one obtained from the OpenMP library call.
      Using this value as default.
      Default threads: 4
      Default applies to threads_max and threads_num_fftboxes.
      Settings in the input file override this default.
   ... done

   Running with 40 MPI processes.
   There are 10 MPI processes running on the same node as the root process.
   Each MPI process is using: 
               1 threads for simulation cell FFTs.
               1 threads for parallel FFT box operations.
               4 threads for loops over batched FFT box operations.
               4 threads in other parallel regions.
... done

Basic input checks...
Resetting ngwf_cg_rotate to TRUE for EDFT calculations
... done

Reading geometry and species blocks from file "3.2735064_GO_manual_4x64graphite.dat" ...
    
  PSINC grid spacing along a1 set to   0.511215680000a0 from input file.
  PSINC grid spacing along a2 set to   0.531284090000a0 from input file.
  PSINC grid spacing along a3 set to   0.507052730000a0 from input file.
  Number of PPD points along a3 set to 1.  This is 
  the default value, it may have been provided also in the input file.
... done
 Writing xyz coordinates to file "3.2735064_GO_manual_4x64graphite.xyz" ... done


--------------------------------------------------------------------------------
---------------------------------- INPUT FILE ----------------------------------
--------------------------------------------------------------------------------

task : singlepoint                                                              
do_properties : true                                                            
dx_format T                                                                     
edft T                                                                          
output_detail VERBOSE                                                           
write_xyz T                                                                     
xc_functional OPTB88                                                            
PSINC_SPACING 0.51121568 0.53128409 0.50705273                                  
paw T                                                                           
pdos_max_l = 2                                                                  
dos_smear  0.1 eV                                                               
popn_calculate T                                                                
PDOS_PSEUDOATOMIC T                                                             
PDOS_REDUCE_SWS F                                                               
PDOS_CONSTRUCT_BASIS F                                                          
PDOS_LOWDIN T                                                                   
PDOS_ORTH_ATOM_BLOCKS F                                                         
PDOS_LCAO_OPTIMIZE F                                                            
pdos_optados_output T                                                           
homo_plot 0                                                                     
lumo_plot 0                                                                     
homo_dens_plot -1                                                               
lumo_dens_plot -1                                                               
%BLOCK SPECIES                                                                  
C C 6 4 9.0                                                                     
%ENDBLOCK SPECIES                                                               
%BLOCK SPECIES_POT                                                              
C "~/pp/paw/c_pbe_abinit.paw"                                                   
%ENDBLOCK SPECIES_POT                                                           
%BLOCK SPECIES_ATOMIC_SET                                                       
C "SOLVE conf=2s2 2p2"                                                          
%ENDBLOCK SPECIES_ATOMIC_SET                                                    
%BLOCK LATTICE_CART                                                             
32.21  0.00  0.00                                                               
0.00 18.59  0.00                                                                
0.00  0.00 61.86                                                                
%ENDBLOCK LATTICE_CART                                                          
%BLOCK POSITIONS_ABS                                                            
C  0.00  0.00  3.09                                                             
C  0.00  0.00 15.47                                                             
C  0.00  0.00 27.84                                                             
C  0.00  0.00 40.21                                                             
C  0.00  0.00 52.58                                                             
C  0.00  4.65  3.09                                                             
C  0.00  4.65 15.47                                                             
C  0.00  4.65 27.84                                                             
C  0.00  4.65 40.21                                                             
C  0.00  4.65 52.58                                                             
C  4.03  2.32  3.09                                                             
C  4.03  2.32 15.47                                                             
C  4.03  2.32 27.84                                                             
C  4.03  2.32 40.21                                                             
C  4.03  2.32 52.58                                                             
C  8.05  0.00  3.09                                                             
C  8.05  0.00 15.47                                                             
C  8.05  0.00 27.84                                                             
C  8.05  0.00 40.21                                                             
C  8.05  0.00 52.58                                                             
C  0.00  9.30  3.09                                                             
C  0.00  9.30 15.47                                                             
C  0.00  9.30 27.84                                                             
C  0.00  9.30 40.21                                                             
C  0.00  9.30 52.58                                                             
C  4.03  6.97  3.09                                                             
C  4.03  6.97 15.47                                                             
C  4.03  6.97 27.84                                                             
C  4.03  6.97 40.21                                                             
C  4.03  6.97 52.58                                                             
C  8.05  4.65  3.09                                                             
C  8.05  4.65 15.47                                                             
C  8.05  4.65 27.84                                                             
C  8.05  4.65 40.21                                                             
C  8.05  4.65 52.58                                                             
C 12.08  2.32  3.09                                                             
C 12.08  2.32 15.47                                                             
C 12.08  2.32 27.84                                                             
C 12.08  2.32 40.21                                                             
C 12.08  2.32 52.58                                                             
C 16.10  0.00  3.09                                                             
C 16.10  0.00 15.47                                                             
C 16.10  0.00 27.84                                                             
C 16.10  0.00 40.21                                                             
C 16.10  0.00 52.58                                                             
C  0.00 13.95  3.09                                                             
C  0.00 13.95 15.47                                                             
C  0.00 13.95 27.84                                                             
C  0.00 13.95 40.21                                                             
C  0.00 13.95 52.58                                                             
C  4.03 11.62  3.09                                                             
C  4.03 11.62 15.47                                                             
C  4.03 11.62 27.84                                                             
C  4.03 11.62 40.21                                                             
C  4.03 11.62 52.58                                                             
C  8.05  9.30  3.09                                                             
C  8.05  9.30 15.47                                                             
C  8.05  9.30 27.84                                                             
C  8.05  9.30 40.21                                                             
C  8.05  9.30 52.58                                                             
C 12.08  6.97  3.09                                                             
C 12.08  6.97 15.47                                                             
C 12.08  6.97 27.84                                                             
C 12.08  6.97 40.21                                                             
C 12.08  6.97 52.58                                                             
C 16.10  4.65  3.09                                                             
C 16.10  4.65 15.47                                                             
C 16.10  4.65 27.84                                                             
C 16.10  4.65 40.21                                                             
C 16.10  4.65 52.58                                                             
C 20.13  2.32  3.09                                                             
C 20.13  2.32 15.47                                                             
C 20.13  2.32 27.84                                                             
C 20.13  2.32 40.21                                                             
C 20.13  2.32 52.58                                                             
C 24.16  0.00  3.09                                                             
C 24.16  0.00 15.47                                                             
C 24.16  0.00 27.84                                                             
C 24.16  0.00 40.21                                                             
C 24.16  0.00 52.58                                                             
C  4.03 16.27  3.09                                                             
C  4.03 16.27 15.47                                                             
C  4.03 16.27 27.84                                                             
C  4.03 16.27 40.21                                                             
C  4.03 16.27 52.58                                                             
C  8.05 13.95  3.09                                                             
C  8.05 13.95 15.47                                                             
C  8.05 13.95 27.84                                                             
C  8.05 13.95 40.21                                                             
C  8.05 13.95 52.58                                                             
C 12.08 11.62  3.09                                                             
C 12.08 11.62 15.47                                                             
C 12.08 11.62 27.84                                                             
C 12.08 11.62 40.21                                                             
C 12.08 11.62 52.58                                                             
C 16.10  9.30  3.09                                                             
C 16.10  9.30 15.47                                                             
C 16.10  9.30 27.84                                                             
C 16.10  9.30 40.21                                                             
C 16.10  9.30 52.58                                                             
C 20.13  6.97  3.09                                                             
C 20.13  6.97 15.47                                                             
C 20.13  6.97 27.84                                                             
C 20.13  6.97 40.21                                                             
C 20.13  6.97 52.58                                                             
C 24.16  4.65  3.09                                                             
C 24.16  4.65 15.47                                                             
C 24.16  4.65 27.84                                                             
C 24.16  4.65 40.21                                                             
C 24.16  4.65 52.58                                                             
C 28.18  2.32  3.09                                                             
C 28.18  2.32 15.47                                                             
C 28.18  2.32 27.84                                                             
C 28.18  2.32 40.21                                                             
C 28.18  2.32 52.58                                                             
C 12.08 16.27  3.09                                                             
C 12.08 16.27 15.47                                                             
C 12.08 16.27 27.84                                                             
C 12.08 16.27 40.21                                                             
C 12.08 16.27 52.58                                                             
C 16.10 13.95  3.09                                                             
C 16.10 13.95 15.47                                                             
C 16.10 13.95 27.84                                                             
C 16.10 13.95 40.21                                                             
C 16.10 13.95 52.58                                                             
C 20.13 11.62  3.09                                                             
C 20.13 11.62 15.47                                                             
C 20.13 11.62 27.84                                                             
C 20.13 11.62 40.21                                                             
C 20.13 11.62 52.58                                                             
C 24.16  9.30  3.09                                                             
C 24.16  9.30 15.47                                                             
C 24.16  9.30 27.84                                                             
C 24.16  9.30 40.21                                                             
C 24.16  9.30 52.58                                                             
C 28.18  6.97  3.09                                                             
C 28.18  6.97 15.47                                                             
C 28.18  6.97 27.84                                                             
C 28.18  6.97 40.21                                                             
C 28.18  6.97 52.58                                                             
C 20.13 16.27  3.09                                                             
C 20.13 16.27 15.47                                                             
C 20.13 16.27 27.84                                                             
C 20.13 16.27 40.21                                                             
C 20.13 16.27 52.58                                                             
C 24.16 13.95  3.09                                                             
C 24.16 13.95 15.47                                                             
C 24.16 13.95 27.84                                                             
C 24.16 13.95 40.21                                                             
C 24.16 13.95 52.58                                                             
C 28.18 11.62  3.09                                                             
C 28.18 11.62 15.47                                                             
C 28.18 11.62 27.84                                                             
C 28.18 11.62 40.21                                                             
C 28.18 11.62 52.58                                                             
C 28.18 16.27  3.09                                                             
C 28.18 16.27 15.47                                                             
C 28.18 16.27 27.84                                                             
C 28.18 16.27 40.21                                                             
C 28.18 16.27 52.58                                                             
C  0.00  0.00  9.28                                                             
C  0.00  0.00 21.65                                                             
C  0.00  0.00 34.02                                                             
C  0.00  0.00 46.40                                                             
C  0.00  0.00 58.77                                                             
C  0.00  4.65  9.28                                                             
C  0.00  4.65 21.65                                                             
C  0.00  4.65 34.02                                                             
C  0.00  4.65 46.40                                                             
C  0.00  4.65 58.77                                                             
C  4.03  2.32  9.28                                                             
C  4.03  2.32 21.65                                                             
C  4.03  2.32 34.02                                                             
C  4.03  2.32 46.40                                                             
C  4.03  2.32 58.77                                                             
C  8.05  0.00  9.28                                                             
C  8.05  0.00 21.65                                                             
C  8.05  0.00 34.02                                                             
C  8.05  0.00 46.40                                                             
C  8.05  0.00 58.77                                                             
C  0.00  9.30  9.28                                                             
C  0.00  9.30 21.65                                                             
C  0.00  9.30 34.02                                                             
C  0.00  9.30 46.40                                                             
C  0.00  9.30 58.77                                                             
C  4.03  6.97  9.28                                                             
C  4.03  6.97 21.65                                                             
C  4.03  6.97 34.02                                                             
C  4.03  6.97 46.40                                                             
C  4.03  6.97 58.77                                                             
C  8.05  4.65  9.28                                                             
C  8.05  4.65 21.65                                                             
C  8.05  4.65 34.02                                                             
C  8.05  4.65 46.40                                                             
C  8.05  4.65 58.77                                                             
C 12.08  2.32  9.28                                                             
C 12.08  2.32 21.65                                                             
C 12.08  2.32 34.02                                                             
C 12.08  2.32 46.40                                                             
C 12.08  2.32 58.77                                                             
C 16.10  0.00  9.28                                                             
C 16.10  0.00 21.65                                                             
C 16.10  0.00 34.02                                                             
C 16.10  0.00 46.40                                                             
C 16.10  0.00 58.77                                                             
C  0.00 13.95  9.28                                                             
C  0.00 13.95 21.65                                                             
C  0.00 13.95 34.02                                                             
C  0.00 13.95 46.40                                                             
C  0.00 13.95 58.77                                                             
C  4.03 11.62  9.28                                                             
C  4.03 11.62 21.65                                                             
C  4.03 11.62 34.02                                                             
C  4.03 11.62 46.40                                                             
C  4.03 11.62 58.77                                                             
C  8.05  9.30  9.28                                                             
C  8.05  9.30 21.65                                                             
C  8.05  9.30 34.02                                                             
C  8.05  9.30 46.40                                                             
C  8.05  9.30 58.77                                                             
C 12.08  6.97  9.28                                                             
C 12.08  6.97 21.65                                                             
C 12.08  6.97 34.02                                                             
C 12.08  6.97 46.40                                                             
C 12.08  6.97 58.77                                                             
C 16.10  4.65  9.28                                                             
C 16.10  4.65 21.65                                                             
C 16.10  4.65 34.02                                                             
C 16.10  4.65 46.40                                                             
C 16.10  4.65 58.77                                                             
C 20.13  2.32  9.28                                                             
C 20.13  2.32 21.65                                                             
C 20.13  2.32 34.02                                                             
C 20.13  2.32 46.40                                                             
C 20.13  2.32 58.77                                                             
C 24.16  0.00  9.28                                                             
C 24.16  0.00 21.65                                                             
C 24.16  0.00 34.02                                                             
C 24.16  0.00 46.40                                                             
C 24.16  0.00 58.77                                                             
C  4.03 16.27  9.28                                                             
C  4.03 16.27 21.65                                                             
C  4.03 16.27 34.02                                                             
C  4.03 16.27 46.40                                                             
C  4.03 16.27 58.77                                                             
C  8.05 13.95  9.28                                                             
C  8.05 13.95 21.65                                                             
C  8.05 13.95 34.02                                                             
C  8.05 13.95 46.40                                                             
C  8.05 13.95 58.77                                                             
C 12.08 11.62  9.28                                                             
C 12.08 11.62 21.65                                                             
C 12.08 11.62 34.02                                                             
C 12.08 11.62 46.40                                                             
C 12.08 11.62 58.77                                                             
C 16.10  9.30  9.28                                                             
C 16.10  9.30 21.65                                                             
C 16.10  9.30 34.02                                                             
C 16.10  9.30 46.40                                                             
C 16.10  9.30 58.77                                                             
C 20.13  6.97  9.28                                                             
C 20.13  6.97 21.65                                                             
C 20.13  6.97 34.02                                                             
C 20.13  6.97 46.40                                                             
C 20.13  6.97 58.77                                                             
C 24.16  4.65  9.28                                                             
C 24.16  4.65 21.65                                                             
C 24.16  4.65 34.02                                                             
C 24.16  4.65 46.40                                                             
C 24.16  4.65 58.77                                                             
C 28.18  2.32  9.28                                                             
C 28.18  2.32 21.65                                                             
C 28.18  2.32 34.02                                                             
C 28.18  2.32 46.40                                                             
C 28.18  2.32 58.77                                                             
C 12.08 16.27  9.28                                                             
C 12.08 16.27 21.65                                                             
C 12.08 16.27 34.02                                                             
C 12.08 16.27 46.40                                                             
C 12.08 16.27 58.77                                                             
C 16.10 13.95  9.28                                                             
C 16.10 13.95 21.65                                                             
C 16.10 13.95 34.02                                                             
C 16.10 13.95 46.40                                                             
C 16.10 13.95 58.77                                                             
C 20.13 11.62  9.28                                                             
C 20.13 11.62 21.65                                                             
C 20.13 11.62 34.02                                                             
C 20.13 11.62 46.40                                                             
C 20.13 11.62 58.77                                                             
C 24.16  9.30  9.28                                                             
C 24.16  9.30 21.65                                                             
C 24.16  9.30 34.02                                                             
C 24.16  9.30 46.40                                                             
C 24.16  9.30 58.77                                                             
C 28.18  6.97  9.28                                                             
C 28.18  6.97 21.65                                                             
C 28.18  6.97 34.02                                                             
C 28.18  6.97 46.40                                                             
C 28.18  6.97 58.77                                                             
C 20.13 16.27  9.28                                                             
C 20.13 16.27 21.65                                                             
C 20.13 16.27 34.02                                                             
C 20.13 16.27 46.40                                                             
C 20.13 16.27 58.77                                                             
C 24.16 13.95  9.28                                                             
C 24.16 13.95 21.65                                                             
C 24.16 13.95 34.02                                                             
C 24.16 13.95 46.40                                                             
C 24.16 13.95 58.77                                                             
C 28.18 11.62  9.28                                                             
C 28.18 11.62 21.65                                                             
C 28.18 11.62 34.02                                                             
C 28.18 11.62 46.40                                                             
C 28.18 11.62 58.77                                                             
C 28.18 16.27  9.28                                                             
C 28.18 16.27 21.65                                                             
C 28.18 16.27 34.02                                                             
C 28.18 16.27 46.40                                                             
C 28.18 16.27 58.77                                                             
C  1.34  2.32  3.09                                                             
C  1.34  2.32 15.47                                                             
C  1.34  2.32 27.84                                                             
C  1.34  2.32 40.21                                                             
C  1.34  2.32 52.58                                                             
C  5.37  0.00  3.09                                                             
C  5.37  0.00 15.47                                                             
C  5.37  0.00 27.84                                                             
C  5.37  0.00 40.21                                                             
C  5.37  0.00 52.58                                                             
C  1.34  6.97  3.09                                                             
C  1.34  6.97 15.47                                                             
C  1.34  6.97 27.84                                                             
C  1.34  6.97 40.21                                                             
C  1.34  6.97 52.58                                                             
C  5.37  4.65  3.09                                                             
C  5.37  4.65 15.47                                                             
C  5.37  4.65 27.84                                                             
C  5.37  4.65 40.21                                                             
C  5.37  4.65 52.58                                                             
C  9.39  2.32  3.09                                                             
C  9.39  2.32 15.47                                                             
C  9.39  2.32 27.84                                                             
C  9.39  2.32 40.21                                                             
C  9.39  2.32 52.58                                                             
C 13.42  0.00  3.09                                                             
C 13.42  0.00 15.47                                                             
C 13.42  0.00 27.84                                                             
C 13.42  0.00 40.21                                                             
C 13.42  0.00 52.58                                                             
C  1.34 11.62  3.09                                                             
C  1.34 11.62 15.47                                                             
C  1.34 11.62 27.84                                                             
C  1.34 11.62 40.21                                                             
C  1.34 11.62 52.58                                                             
C  5.37  9.30  3.09                                                             
C  5.37  9.30 15.47                                                             
C  5.37  9.30 27.84                                                             
C  5.37  9.30 40.21                                                             
C  5.37  9.30 52.58                                                             
C  9.39  6.97  3.09                                                             
C  9.39  6.97 15.47                                                             
C  9.39  6.97 27.84                                                             
C  9.39  6.97 40.21                                                             
C  9.39  6.97 52.58                                                             
C 13.42  4.65  3.09                                                             
C 13.42  4.65 15.47                                                             
C 13.42  4.65 27.84                                                             
C 13.42  4.65 40.21                                                             
C 13.42  4.65 52.58                                                             
C 17.45  2.32  3.09                                                             
C 17.45  2.32 15.47                                                             
C 17.45  2.32 27.84                                                             
C 17.45  2.32 40.21                                                             
C 17.45  2.32 52.58                                                             
C 21.47  0.00  3.09                                                             
C 21.47  0.00 15.47                                                             
C 21.47  0.00 27.84                                                             
C 21.47  0.00 40.21                                                             
C 21.47  0.00 52.58                                                             
C  1.34 16.27  3.09                                                             
C  1.34 16.27 15.47                                                             
C  1.34 16.27 27.84                                                             
C  1.34 16.27 40.21                                                             
C  1.34 16.27 52.58                                                             
C  5.37 13.95  3.09                                                             
C  5.37 13.95 15.47                                                             
C  5.37 13.95 27.84                                                             
C  5.37 13.95 40.21                                                             
C  5.37 13.95 52.58                                                             
C  9.39 11.62  3.09                                                             
C  9.39 11.62 15.47                                                             
C  9.39 11.62 27.84                                                             
C  9.39 11.62 40.21                                                             
C  9.39 11.62 52.58                                                             
C 13.42  9.30  3.09                                                             
C 13.42  9.30 15.47                                                             
C 13.42  9.30 27.84                                                             
C 13.42  9.30 40.21                                                             
C 13.42  9.30 52.58                                                             
C 17.45  6.97  3.09                                                             
C 17.45  6.97 15.47                                                             
C 17.45  6.97 27.84                                                             
C 17.45  6.97 40.21                                                             
C 17.45  6.97 52.58                                                             
C 21.47  4.65  3.09                                                             
C 21.47  4.65 15.47                                                             
C 21.47  4.65 27.84                                                             
C 21.47  4.65 40.21                                                             
C 21.47  4.65 52.58                                                             
C 25.50  2.32  3.09                                                             
C 25.50  2.32 15.47                                                             
C 25.50  2.32 27.84                                                             
C 25.50  2.32 40.21                                                             
C 25.50  2.32 52.58                                                             
C 29.52  0.00  3.09                                                             
C 29.52  0.00 15.47                                                             
C 29.52  0.00 27.84                                                             
C 29.52  0.00 40.21                                                             
C 29.52  0.00 52.58                                                             
C  9.39 16.27  3.09                                                             
C  9.39 16.27 15.47                                                             
C  9.39 16.27 27.84                                                             
C  9.39 16.27 40.21                                                             
C  9.39 16.27 52.58                                                             
C 13.42 13.95  3.09                                                             
C 13.42 13.95 15.47                                                             
C 13.42 13.95 27.84                                                             
C 13.42 13.95 40.21                                                             
C 13.42 13.95 52.58                                                             
C 17.45 11.62  3.09                                                             
C 17.45 11.62 15.47                                                             
C 17.45 11.62 27.84                                                             
C 17.45 11.62 40.21                                                             
C 17.45 11.62 52.58                                                             
C 21.47  9.30  3.09                                                             
C 21.47  9.30 15.47                                                             
C 21.47  9.30 27.84                                                             
C 21.47  9.30 40.21                                                             
C 21.47  9.30 52.58                                                             
C 25.50  6.97  3.09                                                             
C 25.50  6.97 15.47                                                             
C 25.50  6.97 27.84                                                             
C 25.50  6.97 40.21                                                             
C 25.50  6.97 52.58                                                             
C 29.52  4.65  3.09                                                             
C 29.52  4.65 15.47                                                             
C 29.52  4.65 27.84                                                             
C 29.52  4.65 40.21                                                             
C 29.52  4.65 52.58                                                             
C 17.45 16.27  3.09                                                             
C 17.45 16.27 15.47                                                             
C 17.45 16.27 27.84                                                             
C 17.45 16.27 40.21                                                             
C 17.45 16.27 52.58                                                             
C 21.47 13.95  3.09                                                             
C 21.47 13.95 15.47                                                             
C 21.47 13.95 27.84                                                             
C 21.47 13.95 40.21                                                             
C 21.47 13.95 52.58                                                             
C 25.50 11.62  3.09                                                             
C 25.50 11.62 15.47                                                             
C 25.50 11.62 27.84                                                             
C 25.50 11.62 40.21                                                             
C 25.50 11.62 52.58                                                             
C 29.52  9.30  3.09                                                             
C 29.52  9.30 15.47                                                             
C 29.52  9.30 27.84                                                             
C 29.52  9.30 40.21                                                             
C 29.52  9.30 52.58                                                             
C 25.50 16.27  3.09                                                             
C 25.50 16.27 15.47                                                             
C 25.50 16.27 27.84                                                             
C 25.50 16.27 40.21                                                             
C 25.50 16.27 52.58                                                             
C 29.52 13.95  3.09                                                             
C 29.52 13.95 15.47                                                             
C 29.52 13.95 27.84                                                             
C 29.52 13.95 40.21                                                             
C 29.52 13.95 52.58                                                             
C  2.68  0.00  9.28                                                             
C  2.68  0.00 21.65                                                             
C  2.68  0.00 34.02                                                             
C  2.68  0.00 46.40                                                             
C  2.68  0.00 58.77                                                             
C  2.68  4.65  9.28                                                             
C  2.68  4.65 21.65                                                             
C  2.68  4.65 34.02                                                             
C  2.68  4.65 46.40                                                             
C  2.68  4.65 58.77                                                             
C  6.71  2.32  9.28                                                             
C  6.71  2.32 21.65                                                             
C  6.71  2.32 34.02                                                             
C  6.71  2.32 46.40                                                             
C  6.71  2.32 58.77                                                             
C 10.74  0.00  9.28                                                             
C 10.74  0.00 21.65                                                             
C 10.74  0.00 34.02                                                             
C 10.74  0.00 46.40                                                             
C 10.74  0.00 58.77                                                             
C  2.68  9.30  9.28                                                             
C  2.68  9.30 21.65                                                             
C  2.68  9.30 34.02                                                             
C  2.68  9.30 46.40                                                             
C  2.68  9.30 58.77                                                             
C  6.71  6.97  9.28                                                             
C  6.71  6.97 21.65                                                             
C  6.71  6.97 34.02                                                             
C  6.71  6.97 46.40                                                             
C  6.71  6.97 58.77                                                             
C 10.74  4.65  9.28                                                             
C 10.74  4.65 21.65                                                             
C 10.74  4.65 34.02                                                             
C 10.74  4.65 46.40                                                             
C 10.74  4.65 58.77                                                             
C 14.76  2.32  9.28                                                             
C 14.76  2.32 21.65                                                             
C 14.76  2.32 34.02                                                             
C 14.76  2.32 46.40                                                             
C 14.76  2.32 58.77                                                             
C 18.79  0.00  9.28                                                             
C 18.79  0.00 21.65                                                             
C 18.79  0.00 34.02                                                             
C 18.79  0.00 46.40                                                             
C 18.79  0.00 58.77                                                             
C  2.68 13.95  9.28                                                             
C  2.68 13.95 21.65                                                             
C  2.68 13.95 34.02                                                             
C  2.68 13.95 46.40                                                             
C  2.68 13.95 58.77                                                             
C  6.71 11.62  9.28                                                             
C  6.71 11.62 21.65                                                             
C  6.71 11.62 34.02                                                             
C  6.71 11.62 46.40                                                             
C  6.71 11.62 58.77                                                             
C 10.74  9.30  9.28                                                             
C 10.74  9.30 21.65                                                             
C 10.74  9.30 34.02                                                             
C 10.74  9.30 46.40                                                             
C 10.74  9.30 58.77                                                             
C 14.76  6.97  9.28                                                             
C 14.76  6.97 21.65                                                             
C 14.76  6.97 34.02                                                             
C 14.76  6.97 46.40                                                             
C 14.76  6.97 58.77                                                             
C 18.79  4.65  9.28                                                             
C 18.79  4.65 21.65                                                             
C 18.79  4.65 34.02                                                             
C 18.79  4.65 46.40                                                             
C 18.79  4.65 58.77                                                             
C 22.81  2.32  9.28                                                             
C 22.81  2.32 21.65                                                             
C 22.81  2.32 34.02                                                             
C 22.81  2.32 46.40                                                             
C 22.81  2.32 58.77                                                             
C 26.84  0.00  9.28                                                             
C 26.84  0.00 21.65                                                             
C 26.84  0.00 34.02                                                             
C 26.84  0.00 46.40                                                             
C 26.84  0.00 58.77                                                             
C  6.71 16.27  9.28                                                             
C  6.71 16.27 21.65                                                             
C  6.71 16.27 34.02                                                             
C  6.71 16.27 46.40                                                             
C  6.71 16.27 58.77                                                             
C 10.74 13.95  9.28                                                             
C 10.74 13.95 21.65                                                             
C 10.74 13.95 34.02                                                             
C 10.74 13.95 46.40                                                             
C 10.74 13.95 58.77                                                             
C 14.76 11.62  9.28                                                             
C 14.76 11.62 21.65                                                             
C 14.76 11.62 34.02                                                             
C 14.76 11.62 46.40                                                             
C 14.76 11.62 58.77                                                             
C 18.79  9.30  9.28                                                             
C 18.79  9.30 21.65                                                             
C 18.79  9.30 34.02                                                             
C 18.79  9.30 46.40                                                             
C 18.79  9.30 58.77                                                             
C 22.81  6.97  9.28                                                             
C 22.81  6.97 21.65                                                             
C 22.81  6.97 34.02                                                             
C 22.81  6.97 46.40                                                             
C 22.81  6.97 58.77                                                             
C 26.84  4.65  9.28                                                             
C 26.84  4.65 21.65                                                             
C 26.84  4.65 34.02                                                             
C 26.84  4.65 46.40                                                             
C 26.84  4.65 58.77                                                             
C 30.86  2.32  9.28                                                             
C 30.86  2.32 21.65                                                             
C 30.86  2.32 34.02                                                             
C 30.86  2.32 46.40                                                             
C 30.86  2.32 58.77                                                             
C 14.76 16.27  9.28                                                             
C 14.76 16.27 21.65                                                             
C 14.76 16.27 34.02                                                             
C 14.76 16.27 46.40                                                             
C 14.76 16.27 58.77                                                             
C 18.79 13.95  9.28                                                             
C 18.79 13.95 21.65                                                             
C 18.79 13.95 34.02                                                             
C 18.79 13.95 46.40                                                             
C 18.79 13.95 58.77                                                             
C 22.81 11.62  9.28                                                             
C 22.81 11.62 21.65                                                             
C 22.81 11.62 34.02                                                             
C 22.81 11.62 46.40                                                             
C 22.81 11.62 58.77                                                             
C 26.84  9.30  9.28                                                             
C 26.84  9.30 21.65                                                             
C 26.84  9.30 34.02                                                             
C 26.84  9.30 46.40                                                             
C 26.84  9.30 58.77                                                             
C 30.86  6.97  9.28                                                             
C 30.86  6.97 21.65                                                             
C 30.86  6.97 34.02                                                             
C 30.86  6.97 46.40                                                             
C 30.86  6.97 58.77                                                             
C 22.81 16.27  9.28                                                             
C 22.81 16.27 21.65                                                             
C 22.81 16.27 34.02                                                             
C 22.81 16.27 46.40                                                             
C 22.81 16.27 58.77                                                             
C 26.84 13.95  9.28                                                             
C 26.84 13.95 21.65                                                             
C 26.84 13.95 34.02                                                             
C 26.84 13.95 46.40                                                             
C 26.84 13.95 58.77                                                             
C 30.86 11.62  9.28                                                             
C 30.86 11.62 21.65                                                             
C 30.86 11.62 34.02                                                             
C 30.86 11.62 46.40                                                             
C 30.86 11.62 58.77                                                             
C 30.86 16.27  9.28                                                             
C 30.86 16.27 21.65                                                             
C 30.86 16.27 34.02                                                             
C 30.86 16.27 46.40                                                             
C 30.86 16.27 58.77                                                             
%ENDBLOCK POSITIONS_ABS                                                         

--------------------------------------------------------------------------------
-------------------------------- END INPUT FILE --------------------------------
--------------------------------------------------------------------------------


 
<<<<<<<<<<<<<<<<<<<<<<<<<<<<<<<<< Full system >>>>>>>>>>>>>>>>>>>>>>>>>>>>>>>>>>
<<<<<<<<<<<<<<<<<<<<<<<<<<< PAW Dataset information >>>>>>>>>>>>>>>>>>>>>>>>>>>
File: ~/pp/paw/c_pbe_abinit.paw; rc = 1.25 bohr; shape type =  3; rshape = 1.25 bohr;
  Atomic number:  6;  ionic charge:  4.000000
    Partial Wave 1: l = 0
    Partial Wave 2: l = 0
    Partial Wave 3: l = 1
    Partial Wave 4: l = 1
  Core charge supplied for Nonlinear Core Corrections
<<<<<<<<<<<<<<<<<<<<<<<<<<<<<<<<<<<<<<< >>>>>>>>>>>>>>>>>>>>>>>>>>>>>>>>>>>>>>>

-------------------------- Atom counting information ---------------------------
Symbol    Natoms    Nngwfs    Nprojs
  C        640      2560      5120
.......   ......    ......    ......
Totals:    640      2560      5120
--------------------------------------------------------------------------------

=============================== PSINC grid sizes ===============================
                      Simulation cell:   63 x  35 x 122
                              FFT-box:   63 x  35 x 117
                                  PPD:    7 x   5 x   1
Grid space d1=  0.511269841270a0 (KE cutoff=  29.06054Eh = 790.77748eV)
Grid space d2=  0.531142857143a0 (KE cutoff=  26.92659Eh = 732.70972eV)
Grid space d3=  0.507049180328a0 (KE cutoff=  29.54635Eh = 803.99708eV)
================================================================================
  
WARNING in cell_grid_distribute:
Average of less than one 23-slab per node, so workload cannot be
equally balanced between nodes.

********************* Fourier parallelisation information **********************
       Coarse grid (whole simulation cell) dimensions:     63    35   122
          Real-space ('12') slabs/node (min max mean):      3     4     3
         Recip-space ('23') slabs/node (min max mean):      0     1     0
********************************************************************************

********************* Fourier parallelisation information **********************
       Double grid (whole simulation cell) dimensions:    126    70   244
          Real-space ('12') slabs/node (min max mean):      6     7     6
         Recip-space ('23') slabs/node (min max mean):      1     2     1
********************************************************************************

Atom SCF Calculation for C  : Z (AE atom) =   6 : Z (PS atom) =   4
Config String: 2s2 2p2
Orbitals (num,occ):  2     2.00 2.00
Orbitals   (num,l):  2        0    1
Real-space Grid (nr,dr,rmax): 1293    0.0069659443    9.0000000000
Spherical Bessel Basis (nsws,lmax,cutoff):   37    2  161.4736382572
Confining potential (l,width,scale):  0    3.0000000000  100.0000000000
Confining potential (l,width,scale):  1    3.0000000000  100.0000000000
  1         -5.4468762137   -1.3311033486    4.5135257941   -1.6400141247
  2         -5.4563922850   -1.3925089082    4.4492606193   -1.6178955363
  3         -5.4591606672   -1.4162756486    4.4239316220   -1.6104942496
  4         -5.4639338613   -1.4240698331    4.4156521757   -1.6083566999
  5         -5.4657436445   -1.4272842389    4.4122438165   -1.6075116305
  6         -5.4665049591   -1.4285796230    4.4108740217   -1.6071800157
  7         -5.4668137280   -1.4291083664    4.4103163978   -1.6070462938
  8         -5.4669397753   -1.4293243321    4.4100892688   -1.6069921003
  9         -5.4669910134   -1.4294128082    4.4099964732   -1.6069700140
 10         -5.4670118707   -1.4294491026    4.4099585094   -1.6069609935
 11         -5.4670203648   -1.4294640137    4.4099429536   -1.6069573023
 12         -5.4670238269   -1.4294701480    4.4099365706   -1.6069557895
 13         -5.4670252393   -1.4294726750    4.4099339478   -1.6069551687
 14         -5.4670258160   -1.4294737172    4.4099328686   -1.6069549136
 15         -5.4670260518   -1.4294741476    4.4099324241   -1.6069548086
 16         -5.4670261483   -1.4294743256    4.4099322407   -1.6069547654
Atom SCF converged after  16 iterations to a total energy of     -5.46702615

Determining parallel strategy ...
... using space-filling curve
... NGWF load balancing: max     64;  min     64;  average     64
... Projector load balancing: max    128;  min    128;  average    128
... done
Calculating Ewald energy ...
              Ewald: real-space energy =    9513.649447
        Ewald: reciprocal-space energy =       0.059796
         Ewald: (sum_charge)**2 Energy =   11406.785290
         Ewald: (sum_charge**2) Energy =     901.785557
                          Ewald Energy =   -2794.861604
Basis initialisation ...... NGWF spheres initialised
... Projector spheres initialised
... NGWF tight boxes initialised
... Projector tight boxes initialised
... Tight-boxes gathered
... NGWF basis size (local,global):     694868  27907776
... PAW projector initialisation
... done

============================= Charge Augmentation ==============================
                           Aug box size:   11 x  11 x  11
================================================================================

========================== Sparse matrix information ===========================
                        Overlap matrix filling:  44.38%
                        Density kernel filling: 100.00%
              NGWF-Proj overlap matrix filling:  13.12%
                    Aug Overlap matrix filling:  47.81%
                    Hamiltonian matrix filling:  47.81%
                  NGWF diagonal matrix filling:   0.16%
                             KS matrix filling: 100.00% 
                           KSKS matrix filling: 100.00% 
================================================================================

Sparse matrix initialisation ... done
NGWF initialisation ...... done
============ Calculation of NGWF S^-1 using Hotelling algorithm ================ 
         Iteration  |  Frobenius norm and Maximum abs value    (of I-S*S_n^-1)   
               1       0.49174432E+02     0.97747148E+00
               2       0.48022208E+02     0.95673427E+00
               3       0.46266049E+02     0.91967727E+00
               4       0.43948903E+02     0.85855495E+00
               5       0.41147513E+02     0.76731652E+00
               6       0.37851273E+02     0.68567245E+00
               7       0.34349384E+02     0.63632666E+00
               8       0.31007123E+02     0.59554221E+00
               9       0.27529426E+02     0.55360976E+00
              10       0.23203316E+02     0.48972522E+00
              11       0.17542345E+02     0.38673441E+00
              12       0.10840234E+02     0.24595928E+00
              13       0.46990930E+01     0.10527534E+00
              14       0.10523821E+01     0.21864647E-01
              15       0.62634025E-01     0.11467748E-02
              16       0.27575613E-03     0.39869335E-05
              17       0.79136936E-08     0.71892048E-10
              18       0.81211400E-13     0.52180482E-14
================================================================================
Calculating core density ...
================================= Core Density =================================
               Core den box size:   21 x  21 x  21
================================================================================
 ... done
Up spin density kernel initialisation ...... done

Writing density kernel to file "3.2735064_GO_manual_4x64graphite.dkn" ... done

>>> Optimising kernel for current NGWFs:

--------------------------- Ensemble-DFT optimisation --------------------------
Running ScaLAPACK on   40 processor(s).

--------------------------------------------------------------------------------
  Iter                              Commutator    Free_energy(A=E-TS)     DeltaA
#    0                          0.000043476212   -3653.18801600706229  -3.65E+03

Step                       =       0.381966011250
Energy                     =   -3653.187978415029
Entropy (-TS)              =      -0.000037592553
Free energy (A=E-TS)       =   -3653.188016007062
Est. 0K Energy 0.5*(E+A)   =   -3653.187997211046
Residual Non-orthogonality =       0.000000000000
Residual N_electrons       =       0.000000000520

Spin          Integrated_Ne            Fermi_level     Delta_Fermi_level
   1      2559.999999997662         0.222212568950              2.22E-01

                           Spin 1          
     Orb      H-eigenvalues     Occupancies
       1 |    -0.5000387223    1.0000000000 | 
                          ------
    1276 |     0.1890593961    0.9999715958 | 
    1277 |     0.1896585356    0.9999656801 | 
    1278 |     0.1896744734    0.9999655070 | 
    1279 |     0.1901438722    0.9999599961 | 
    1280 |     0.1907494861    0.9999515658 | 
                 - Gap at zero temperature -
    1281 |     0.2561869147    0.0000219165 | 
    1282 |     0.2562005696    0.0000218222 | 
    1283 |     0.2562992498    0.0000211527 | 
    1284 |     0.2564151259    0.0000203927 | 
    1285 |     0.2564286954    0.0000203055 | 
                          ------
    2560 |     1.0523445332    0.0000000000 | 

                       |  Abs_value |  Threshold | Converged
     Delta_Free_energy |   3.65E+03 |   1.00E-06 |        No
     Delta_Energy      |   3.65E+03 |   1.00E-04 |        No
     Delta_Entropy     |   3.76E-05 |   1.00E-04 |       Yes
     Commutator        |   4.35E-05 |   1.00E-05 |        No
     Delta_Fermi_level |   2.22E-01 |   1.00E-03 |        No

  Line search of the free energy minimum:
  Step_type        Step             Free_energy   Predicted_free_energy
.   Initial    0.000000    -3653.18801600706229
.    Trial1    0.381966    -3653.18993863020933
.    Trial2    0.618034    -3653.18985543698818
. Quadratic    0.479780    -3653.19002144848537    -3653.19002200811656

--------------------------------------------------------------------------------
  Iter                              Commutator    Free_energy(A=E-TS)     DeltaA
#    1                          0.000022217100   -3653.19002144848537  -2.01E-03

Step                       =       0.479780307564
Energy                     =   -3653.189984582336
Entropy (-TS)              =      -0.000036866389
Free energy (A=E-TS)       =   -3653.190021448485
Est. 0K Energy 0.5*(E+A)   =   -3653.190003015411
Residual Non-orthogonality =       0.000000000000
Residual N_electrons       =       0.000000000240

Spin          Integrated_Ne            Fermi_level     Delta_Fermi_level
   1      2559.999999998928         0.223857921938              1.65E-03

                           Spin 1          
     Orb      H-eigenvalues     Occupancies
       1 |    -0.4995161087    1.0000000000 | 
                          ------
    1276 |     0.1907118415    0.9999715321 | 
    1277 |     0.1911814957    0.9999669812 | 
    1278 |     0.1911982246    0.9999668063 | 
    1279 |     0.1918161899    0.9999596540 | 
    1280 |     0.1922934087    0.9999530925 | 
                 - Gap at zero temperature -
    1281 |     0.2578720073    0.0000216432 | 
    1282 |     0.2579032461    0.0000214307 | 
    1283 |     0.2580087116    0.0000207288 | 
    1284 |     0.2581145010    0.0000200478 | 
    1285 |     0.2581748481    0.0000196694 | 
                          ------
    2560 |     1.0548713978    0.0000000000 | 

                       |  Abs_value |  Threshold | Converged
     Delta_Free_energy |   2.01E-03 |   1.00E-06 |        No
     Delta_Energy      |   2.01E-03 |   1.00E-04 |        No
     Delta_Entropy     |   7.26E-07 |   1.00E-04 |       Yes
     Commutator        |   2.22E-05 |   1.00E-05 |        No
     Delta_Fermi_level |   1.65E-03 |   1.00E-03 |        No

  Line search of the free energy minimum:
  Step_type        Step             Free_energy   Predicted_free_energy
.   Initial    0.000000    -3653.19002144848537
.    Trial1    0.479780    -3653.19027281587569
.    Trial2    0.678487    -3653.18970811519239
. Quadratic    0.292697    -3653.19044716392318    -3653.19044644371797

--------------------------------------------------------------------------------
  Iter                              Commutator    Free_energy(A=E-TS)     DeltaA
#    2                          0.000014285988   -3653.19044716392318  -4.26E-04

Step                       =       0.292696766993
Energy                     =   -3653.190410630655
Entropy (-TS)              =      -0.000036533523
Free energy (A=E-TS)       =   -3653.190447163923
Est. 0K Energy 0.5*(E+A)   =   -3653.190428897289
Residual Non-orthogonality =       0.000000000000
Residual N_electrons       =       0.000000000255

Spin          Integrated_Ne            Fermi_level     Delta_Fermi_level
   1      2559.999999998865         0.224343714399              4.86E-04

                           Spin 1          
     Orb      H-eigenvalues     Occupancies
       1 |    -0.4993614221    1.0000000000 | 
                          ------
    1276 |     0.1911476716    0.9999719777 | 
    1277 |     0.1916527507    0.9999671324 | 
    1278 |     0.1916710973    0.9999669414 | 
    1279 |     0.1922466689    0.9999603526 | 
    1280 |     0.1927607659    0.9999533647 | 
                 - Gap at zero temperature -
    1281 |     0.2583948913    0.0000213912 | 
    1282 |     0.2584270237    0.0000211752 | 
    1283 |     0.2585295289    0.0000205008 | 
    1284 |     0.2586472927    0.0000197524 | 
    1285 |     0.2587089908    0.0000193713 | 
                          ------
    2560 |     1.0556544769    0.0000000000 | 

                       |  Abs_value |  Threshold | Converged
     Delta_Free_energy |   4.26E-04 |   1.00E-06 |        No
     Delta_Energy      |   4.26E-04 |   1.00E-04 |        No
     Delta_Entropy     |   3.33E-07 |   1.00E-04 |       Yes
     Commutator        |   1.43E-05 |   1.00E-05 |        No
     Delta_Fermi_level |   4.86E-04 |   1.00E-03 |       Yes

  Line search of the free energy minimum:
  Step_type        Step             Free_energy   Predicted_free_energy
.   Initial    0.000000    -3653.19044716392318
.    Trial1    0.292697    -3653.19061035916684
.    Trial2    0.562863    -3653.19046039546629
. Quadratic    0.287377    -3653.19061041890654    -3653.19061041510213

--------------------------------------------------------------------------------
  Iter                              Commutator    Free_energy(A=E-TS)     DeltaA
#    3                          0.000010012377   -3653.19061041890654  -1.63E-04

Step                       =       0.287377306081
Energy                     =   -3653.190574100735
Entropy (-TS)              =      -0.000036318164
Free energy (A=E-TS)       =   -3653.190610418907
Est. 0K Energy 0.5*(E+A)   =   -3653.190592259821
Residual Non-orthogonality =       0.000000000000
Residual N_electrons       =      -0.000000000008

Spin          Integrated_Ne            Fermi_level     Delta_Fermi_level
   1      2560.000000000034         0.224684749802              3.41E-04

                           Spin 1          
     Orb      H-eigenvalues     Occupancies
       1 |    -0.4992479841    1.0000000000 | 
                          ------
    1276 |     0.1914657905    0.9999721797 | 
    1277 |     0.1919763751    0.9999673126 | 
    1278 |     0.1919955249    0.9999671143 | 
    1279 |     0.1925636486    0.9999606526 | 
    1280 |     0.1930840337    0.9999536256 | 
                 - Gap at zero temperature -
    1281 |     0.2587563169    0.0000212539 | 
    1282 |     0.2587886090    0.0000210382 | 
    1283 |     0.2588910368    0.0000203687 | 
    1284 |     0.2590098695    0.0000196185 | 
    1285 |     0.2590671729    0.0000192667 | 
                          ------
    2560 |     1.0562105341    0.0000000000 | 

                       |  Abs_value |  Threshold | Converged
     Delta_Free_energy |   1.63E-04 |   1.00E-06 |        No
     Delta_Energy      |   1.63E-04 |   1.00E-04 |        No
     Delta_Entropy     |   2.15E-07 |   1.00E-04 |       Yes
     Commutator        |   1.00E-05 |   1.00E-05 |        No
     Delta_Fermi_level |   3.41E-04 |   1.00E-03 |       Yes

  Line search of the free energy minimum:
  Step_type        Step             Free_energy   Predicted_free_energy
.   Initial    0.000000    -3653.19061041890654
.    Trial1    0.287377    -3653.19068821729934
.    Trial2    0.559575    -3653.19060863984078
. Quadratic    0.278208    -3653.19068830413880    -3653.19068830190645

--------------------------------------------------------------------------------
  Iter                              Commutator    Free_energy(A=E-TS)     DeltaA
#    4                          0.000007209503   -3653.19068830413880  -7.79E-05

Step                       =       0.278207687148
Energy                     =   -3653.190652129690
Entropy (-TS)              =      -0.000036174561
Free energy (A=E-TS)       =   -3653.190688304139
Est. 0K Energy 0.5*(E+A)   =   -3653.190670216914
Residual Non-orthogonality =       0.000000000000
Residual N_electrons       =       0.000000000112

Spin          Integrated_Ne            Fermi_level     Delta_Fermi_level
   1      2559.999999999503         0.224919585799              2.35E-04

                           Spin 1          
[...]
 C   160 -- C   385       -0.09      5.37000
 C   159 -- C   384       -0.09      5.37000
 C   158 -- C   383       -0.09      5.37000
 C   157 -- C   382       -0.09      5.37000
 C   156 -- C   381       -0.09      5.37000
 C   155 -- C   355       -0.09      5.37000
 C   154 -- C   354       -0.09      5.37000
 C   153 -- C   353       -0.09      5.37000
 C   152 -- C   352       -0.09      5.37000
 C   151 -- C   351       -0.09      5.37000
 C   140 -- C   335       -0.09      5.37000
 C   139 -- C   334       -0.09      5.37000
 C   138 -- C   333       -0.09      5.37000
 C   137 -- C   332       -0.09      5.37000
 C   136 -- C   331       -0.09      5.37000
 C   115 -- C   325       -0.09      5.37000
 C   114 -- C   324       -0.09      5.37000
 C   113 -- C   323       -0.09      5.37000
 C   112 -- C   322       -0.09      5.37000
 C   111 -- C   321       -0.09      5.37000
 C   219 -- C   569       -0.09      5.37202
 C   218 -- C   568       -0.09      5.37202
 C   217 -- C   567       -0.09      5.37202
 C   216 -- C   566       -0.09      5.37202
 C   250 -- C   540       -0.09      5.37202
 C   249 -- C   539       -0.09      5.37202
 C   248 -- C   538       -0.09      5.37202
 C   247 -- C   537       -0.09      5.37202
 C   246 -- C   536       -0.09      5.37202
 C   220 -- C   570       -0.09      5.37202
 C   285 -- C   580       -0.09      5.37202
 C   284 -- C   579       -0.09      5.37202
 C   283 -- C   578       -0.09      5.37202
 C   282 -- C   577       -0.09      5.37202
 C   281 -- C   576       -0.09      5.37202
 C   260 -- C   605       -0.09      5.37202
 C   259 -- C   604       -0.09      5.37202
 C   258 -- C   603       -0.09      5.37202
 C   257 -- C   602       -0.09      5.37202
 C   256 -- C   601       -0.09      5.37202
 C   220 -- C   515       -0.09      5.37202
 C   219 -- C   514       -0.09      5.37202
 C   218 -- C   513       -0.09      5.37202
 C   217 -- C   512       -0.09      5.37202
 C   216 -- C   511       -0.09      5.37202
 C   195 -- C   540       -0.09      5.37202
 C   195 -- C   500       -0.09      5.37202
 C   194 -- C   539       -0.09      5.37202
 C   194 -- C   499       -0.09      5.37202
 C   193 -- C   538       -0.09      5.37202
 C   193 -- C   498       -0.09      5.37202
 C   192 -- C   537       -0.09      5.37202
 C   192 -- C   497       -0.09      5.37202
 C   191 -- C   536       -0.09      5.37202
 C   191 -- C   496       -0.09      5.37202
 C   180 -- C   515       -0.09      5.37202
 C   179 -- C   514       -0.09      5.37202
 C   178 -- C   513       -0.09      5.37202
 C   177 -- C   512       -0.09      5.37202
 C   176 -- C   511       -0.09      5.37202
 C    11 -- C   331       -0.09      5.37202
 C   205 -- C   550       -0.09      5.37202
 C   204 -- C   549       -0.09      5.37202
 C   203 -- C   548       -0.09      5.37202
 C   202 -- C   547       -0.09      5.37202
 C   201 -- C   546       -0.09      5.37202
 C    95 -- C   425       -0.09      5.37202
 C    95 -- C   365       -0.09      5.37202
 C    94 -- C   424       -0.09      5.37202
 C    94 -- C   364       -0.09      5.37202
 C    93 -- C   423       -0.09      5.37202
 C    93 -- C   363       -0.09      5.37202
 C    92 -- C   422       -0.09      5.37202
 C    92 -- C   362       -0.09      5.37202
 C    91 -- C   421       -0.09      5.37202
 C    91 -- C   361       -0.09      5.37202
 C    40 -- C   365       -0.09      5.37202
 C    39 -- C   364       -0.09      5.37202
 C    38 -- C   363       -0.09      5.37202
 C    37 -- C   362       -0.09      5.37202
 C    36 -- C   361       -0.09      5.37202
 C    15 -- C   335       -0.09      5.37202
 C    65 -- C   395       -0.09      5.37202
 C    65 -- C   345       -0.09      5.37202
 C    64 -- C   394       -0.09      5.37202
 C    64 -- C   344       -0.09      5.37202
 C    63 -- C   393       -0.09      5.37202
 C    30 -- C   355       -0.09      5.37202
 C    63 -- C   343       -0.09      5.37202
 C    62 -- C   392       -0.09      5.37202
 C    30 -- C   325       -0.09      5.37202
 C    14 -- C   334       -0.09      5.37202
 C    62 -- C   342       -0.09      5.37202
 C    61 -- C   391       -0.09      5.37202
 C    29 -- C   354       -0.09      5.37202
 C    61 -- C   341       -0.09      5.37202
 C    29 -- C   324       -0.09      5.37202
 C   260 -- C   550       -0.09      5.37202
 C   259 -- C   549       -0.09      5.37202
 C    28 -- C   353       -0.09      5.37202
 C   258 -- C   548       -0.09      5.37202
 C   257 -- C   547       -0.09      5.37202
 C   256 -- C   546       -0.09      5.37202
 C    28 -- C   323       -0.09      5.37202
 C    27 -- C   352       -0.09      5.37202
 C    13 -- C   333       -0.09      5.37202
 C    27 -- C   322       -0.09      5.37202
 C   120 -- C   395       -0.09      5.37202
 C    26 -- C   351       -0.09      5.37202
 C   119 -- C   394       -0.09      5.37202
 C   118 -- C   393       -0.09      5.37202
 C    55 -- C   335       -0.09      5.37202
 C   117 -- C   392       -0.09      5.37202
 C    26 -- C   321       -0.09      5.37202
 C   116 -- C   391       -0.09      5.37202
 C    54 -- C   334       -0.09      5.37202
 C    12 -- C   332       -0.09      5.37202
 C    53 -- C   333       -0.09      5.37202
 C   230 -- C   580       -0.09      5.37202
 C   230 -- C   525       -0.09      5.37202
 C   229 -- C   579       -0.09      5.37202
 C   229 -- C   524       -0.09      5.37202
 C   228 -- C   578       -0.09      5.37202
 C    52 -- C   332       -0.09      5.37202
 C   228 -- C   523       -0.09      5.37202
 C   227 -- C   577       -0.09      5.37202
 C   227 -- C   522       -0.09      5.37202
 C   226 -- C   576       -0.09      5.37202
 C   226 -- C   521       -0.09      5.37202
 C    51 -- C   331       -0.09      5.37202
 C    23 -- C   478       -0.09      5.37202
 C    49 -- C   469       -0.09      5.37202
 C    48 -- C   468       -0.09      5.37202
 C    47 -- C   467       -0.09      5.37202
 C    22 -- C   477       -0.09      5.37202
 C    46 -- C   466       -0.09      5.37202
 C    21 -- C   476       -0.09      5.37202
 C    85 -- C   355       -0.09      5.37202
 C    84 -- C   354       -0.09      5.37202
 C    83 -- C   353       -0.09      5.37202
 C    82 -- C   352       -0.09      5.37202
 C    81 -- C   351       -0.09      5.37202
 C    55 -- C   385       -0.09      5.37202
 C    54 -- C   384       -0.09      5.37202
 C    25 -- C   480       -0.09      5.37202
 C    53 -- C   383       -0.09      5.37202
 C    52 -- C   382       -0.09      5.37202
 C    51 -- C   381       -0.09      5.37202
 C    24 -- C   479       -0.09      5.37202
 C    50 -- C   470       -0.09      5.37202
 C    24 -- C   449       -0.09      5.37202
 C     6 -- C   416       -0.09      5.37202
 C    23 -- C   448       -0.09      5.37202
 C    22 -- C   447       -0.09      5.37202
 C    10 -- C   470       -0.09      5.37202
 C     5 -- C   450       -0.09      5.37202
 C    21 -- C   446       -0.09      5.37202
 C    10 -- C   420       -0.09      5.37202
 C     9 -- C   469       -0.09      5.37202
 C     9 -- C   419       -0.09      5.37202
 C     8 -- C   468       -0.09      5.37202
 C     4 -- C   449       -0.09      5.37202
 C   150 -- C   440       -0.09      5.37202
 C   149 -- C   439       -0.09      5.37202
 C   148 -- C   438       -0.09      5.37202
 C   147 -- C   437       -0.09      5.37202
 C     8 -- C   418       -0.09      5.37202
 C   146 -- C   436       -0.09      5.37202
 C     2 -- C   447       -0.09      5.37202
 C   135 -- C   460       -0.09      5.37202
 C     7 -- C   467       -0.09      5.37202
 C   134 -- C   459       -0.09      5.37202
 C   133 -- C   458       -0.09      5.37202
 C   132 -- C   457       -0.09      5.37202
 C   131 -- C   456       -0.09      5.37202
 C     7 -- C   417       -0.09      5.37202
 C     1 -- C   446       -0.09      5.37202
 C     6 -- C   466       -0.09      5.37202
 C    25 -- C   450       -0.09      5.37202
 C     3 -- C   448       -0.09      5.37202
 C   106 -- C   436       -0.09      5.37202
 C   106 -- C   376       -0.09      5.37202
 C    80 -- C   410       -0.09      5.37202
 C    79 -- C   409       -0.09      5.37202
 C    78 -- C   408       -0.09      5.37202
 C    77 -- C   407       -0.09      5.37202
 C    76 -- C   406       -0.09      5.37202
 C   135 -- C   410       -0.09      5.37202
 C   134 -- C   409       -0.09      5.37202
 C   133 -- C   408       -0.09      5.37202
 C   132 -- C   407       -0.09      5.37202
 C   131 -- C   406       -0.09      5.37202
 C   110 -- C   440       -0.09      5.37202
 C   110 -- C   380       -0.09      5.37202
 C   109 -- C   439       -0.09      5.37202
 C   109 -- C   379       -0.09      5.37202
 C   108 -- C   438       -0.09      5.37202
 C   108 -- C   378       -0.09      5.37202
 C   107 -- C   437       -0.09      5.37202
 C   107 -- C   377       -0.09      5.37202
 C   215 -- C   635       -0.09      5.38000
 C   214 -- C   634       -0.09      5.38000
 C   213 -- C   633       -0.09      5.38000
 C   212 -- C   632       -0.09      5.38000
 C   211 -- C   631       -0.09      5.38000
 C   190 -- C   620       -0.09      5.38000
 C   189 -- C   619       -0.09      5.38000
 C   188 -- C   618       -0.09      5.38000
 C   187 -- C   617       -0.09      5.38000
 C   186 -- C   616       -0.09      5.38000
 C   175 -- C   595       -0.09      5.38000
 C   174 -- C   594       -0.09      5.38000
 C   173 -- C   593       -0.09      5.38000
 C   172 -- C   592       -0.09      5.38000
 C   171 -- C   591       -0.09      5.38000
 C   245 -- C   640       -0.09      5.38000
 C   244 -- C   639       -0.09      5.38000
 C   243 -- C   638       -0.09      5.38000
 C   242 -- C   637       -0.09      5.38000
 C   241 -- C   636       -0.09      5.38000
==================================================


=================== Orbital energy and occupancy information ===================

      Total number of orbitals:    2560
        Occupancy sum (kernel):    1280.000000000
   Occupancy sum (eigenvalues):    1280.000000000
                 HOMO-LUMO gap:       0.062547434 Eh
                 Mid-gap level:       0.267291473 Eh

                        Orbital | Energy (Eh) | Occupancy
                            1    -0.457798055   1.0000000
                        .......   ...........   .........
                         1271     0.230446309   0.9999880
                         1272     0.230497531   0.9999878
                         1273     0.230916066   0.9999861
                         1274     0.230967295   0.9999859
                         1275     0.234814088   0.9999523
                         1276     0.234819261   0.9999523
                         1277     0.235261238   0.9999451
                         1278     0.235266356   0.9999450
                         1279     0.235585821   0.9999392
                         1280     0.236017756   0.9999303
                        ....... -- gap at 0K -- .........
                         1281     0.298565190   0.0000378
                         1282     0.298593877   0.0000375
                         1283     0.298818080   0.0000349
                         1284     0.298846650   0.0000346
                         1285     0.299560742   0.0000277
                         1286     0.299574107   0.0000276
                         1287     0.299830232   0.0000255
                         1288     0.299843452   0.0000254
                         1289     0.300246292   0.0000224
                         1290     0.300440321   0.0000209
                        .......   ...........   .........
                         2560     1.154342404   0.0000000

================================================================================

===================== Writing canonical molecular orbitals =====================
| Orbital  Energy (eV)  Norm     |
| HOMO      6.42236994  1.000000 | Writing "3.2735064_GO_manual_4x64graphite_HOMO.cube" ... done
Writing "3.2735064_GO_manual_4x64graphite_HOMO.dx" ... done
| LUMO      8.12437221  1.000000 | Writing "3.2735064_GO_manual_4x64graphite_LUMO.cube" ... done
Writing "3.2735064_GO_manual_4x64graphite_LUMO.dx" ... done
================================================================================
 
===================== Density of States (DOS) calculation ======================
Writing "3.2735064_GO_manual_4x64graphite_DOS.txt" ...  done
================================================================================
 
Writing bands to file "3.2735064_GO_manual_4x64graphite.val_bands" ... done
 
================ Projected Density of States (pDOS) calculation ================
 
Constructing AM resolved functions  ...... done
Writing NGWF plot files in formats: CUBE DX ...  done
 
Performing overlap integrals ...  done
 
Computing pDOS weights ...  done
 
All bands spilling parameter =   3.84 %
Occupancy-weighted spilling parameter =   0.84 %
 
 => Outputting data for OptaDOS <=
 
Writing pDOS weights to file "3.2735064_GO_manual_4x64graphite.val_pdos_bin" ... done
 
Writing band gradients to file "3.2735064_GO_manual_4x64graphite.val_dome_bin" ... done
 
Writing Castep output cell file to "3.2735064_GO_manual_4x64graphite-out.cell" ... done
 
 => Computing Gaussian smeared pDOS <= 
Writing "3.2735064_GO_manual_4x64graphite_PDOS.txt" ...  done
 
 => Computing Occupancy-weighted Gaussian smeared pDOS <= 
Writing "3.2735064_GO_manual_4x64graphite_occ_PDOS.txt" ...  done
  => Band centres: 
 S band centre of group 1:  -14.701082 eV
 P band centre of group 1:   -7.598339 eV
  Band centres done. <=
  => Integrated number of electrons in each AM band: 
 S num electrons of group 1:  574.400289
 P num electrons of group 1: 1964.134921
  Integrated number of electrons done. <=
================================================================================

------------------------------ TIMING INFORMATION ------------------------------
AVERAGE TIME:    4061.352s on     40 node(s)                                    
TOTAL TIME:      4061.354s on     40 node(s)                                    
================= AVERAGE TIMINGS FROM ALL NODES (CUMULATIVE) ==================
|| TAG                                    #calls    cpu time   %total  Gflops ||
|| work_imbalance                       :     1        0.00s   0.000%  ------ ||
|| paw_tcore_hartree_on_grid            :     1        0.01s   0.000%  ------ ||
|| paw_tcore_density                    :     1        0.01s   0.000%  ------ ||
|| paw_sphere_density_on_grid           :     1        0.01s   0.000%  ------ ||
|| sparse_set_to_garbage                :   171        0.03s   0.001%  ------ ||
|| paw_dij_hartree                      :   365        0.05s   0.001%  ------ ||
|| pseudo_make_structure_factor         :     1        0.05s   0.001%  ------ ||
|| basis_extract_function_from_box      :  1920        0.08s   0.002%  ------ ||
|| paw_species_calc_proj_prec_mat       :     1        0.12s   0.003%  ------ ||
|| paw_dataset_init                     :     1        0.15s   0.004%  ------ ||
|| density_init_guess_real              :     1        0.19s   0.005%  ------ ||
|| ngwfs_initialise_from_radial         :     2        0.67s   0.016%  ------ ||
|| restart_kernel_write                 :    16        0.80s   0.020%  ------ ||
|| dense_normal_eigensolve              :     1        0.93s   0.023%  ------ ||
|| sparse_init                          :     1        0.96s   0.024%  ------ ||
|| hartree_on_grid                      :   274        1.79s   0.044%  ------ ||
|| ewald_calculate_energy               :     1        2.55s   0.063%  ------ ||
|| projectors_init_fftbox_recip         :   151        2.94s   0.072%  ------ ||
|| fourier_apply_box_pair               :  2848        4.72s   0.116% 559.566 ||
|| basis_copy_function_to_box           : 25856        5.56s   0.137%  ------ ||
|| augmentation_screen_dij              :   279        6.31s   0.155%  ------ ||
|| sw_init                              :     1        6.73s   0.166%  ------ ||
|| sparse_embed_hotelling_invert_embed  :    29        9.03s   0.222%  ------ ||
|| ngwf_gradient_coeffs                 :    15       12.49s   0.307%  ------ ||
|| cell_grid_extract_box_real           : 10876       14.66s   0.361%  ------ ||
|| sparse_trace                         :  3312       18.13s   0.447%  ------ ||
|| cell_grid_deposit_box_real           : 35248       19.28s   0.475%  ------ ||
|| fourier_apply_cell_backward          :  8465       20.00s   0.493%  48.408 ||
|| fourier_apply_cell_forward           :  7918       21.62s   0.532%  41.899 ||
|| paw_dij_xc                           :   365       33.67s   0.829%  ------ ||
|| density_fftbox_deposit_to_cell       : 17536       37.30s   0.918%  ------ ||
|| aug_nonlocal_mat                     :   350       46.22s   1.138%  ------ ||
|| hamiltonian_energy_components        :     3       48.83s   1.202%  ------ ||
|| eigenstates_pdos                     :     1       52.87s   1.302%  ------ ||
|| augmentation_density_on_grid         :   274       54.10s   1.332%  ------ ||
|| eigenstates_calculate                :     1       56.99s   1.403%  ------ ||
|| function_ops_brappd_ketppd           :    60       60.70s   1.495%  ------ ||
|| projectors_func_ovlp_box             :    30       72.46s   1.784%  ------ ||
|| nlxc_vdw_energy                      :   546       82.64s   2.035%  ------ ||
|| xc_energy_potential                  :   273       86.85s   2.139%  ------ ||
|| properties_calculate                 :     1      102.30s   2.519%  ------ ||
|| integrals_kinetic                    :    29      104.01s   2.561%  ------ ||
|| dense_eigensolve                     :   241      105.47s   2.597%  ------ ||
|| restart_ngwfs_tightbox_output        :    14      125.28s   3.085%  ------ ||
|| potential_apply_to_ngwf_batch        :   340      128.05s   3.153%  ------ ||
|| sparse_product                       :  3325      152.32s   3.751%  ------ ||
|| basis_dot_function_with_box          : 8.525M     232.23s   5.718%  ------ ||
|| edft_diag_ngwf_ham                   :   240      252.04s   6.206%  ------ ||
|| fourier_apply_box                    : 81376      252.97s   6.229% 978.758 ||
|| projectors_gradient_batch            :    60      282.05s   6.945%  ------ ||
|| integrals_locpot_mat_els_batch       :   340      307.96s   7.583%  ------ ||
|| density_fftbox_interpolate_multiply  : 17536      339.84s   8.368%  ------ ||
|| density_batch_interp_deposit         :  1096      413.73s  10.187%  ------ ||
|| projectors_grad_precond_batch        :    60      414.13s  10.197%  ------ ||
|| integrals_locpot_dbl_grid            :    85      437.74s  10.778%  ------ ||
|| edft_apply_smearing_operator         :   240      504.01s  12.410%  ------ ||
|| basis_add_function_to_box            : 24.28M     635.27s  15.642%  ------ ||
|| ngwf_gradient_build_batch            :    60      741.24s  18.251%  ------ ||
|| density_batch_row_sums               :  1096      892.07s  21.965%  ------ ||
|| ngwf_gradient_batch                  :    60      980.74s  24.148%  ------ ||
|| ngwf_gradient_lnv                    :    15     1020.69s  25.132%  ------ ||
|| density_on_dbl_grid                  :   274     1319.81s  32.497%  ------ ||
|| hamiltonian_lhxc_calculate           :   269     1439.56s  35.445%  ------ ||
|| edft_calculate                       :    15     2385.33s  58.732%  ------ ||
|| ngwf_cg_optimise                     :     1     3933.34s  96.848%  ------ ||
|| total_time                           :     1     4061.35s 100.000%  ------ ||
================================================================================
Overhead of generating timer report: 
- 0 ms averaging over threads,
- 5 ms ensuring consistency across MPI ranks,
- 0 ms printing in order.

Job completed: 25-02-2020 13:31 (-0000)

