 +---------------------------------------------------------------+
 |                                                               |
 |        ####### #     # ####### ####### ####### ######         |
 |        #     # ##    # #          #    #       #     #        |
 |        #     # # #   # #          #    #       #     #        |
 |        #     # #  #  # #####      #    #####   ######         |
 |        #     # #   # # #          #    #       #              |
 |        #     # #    ## #          #    #       #              |
 |        ####### #     # #######    #    ####### #              |
 |                                                               |
 |        Linear-Scaling Ab Initio Total Energy Program          |
 |                                                               |
 |          Release for academic collaborators of ODG            |
 |                                             Version 5.3.2.12  |
 |                                                               |
 +---------------------------------------------------------------+
 |                                                               |
 |  Authors:                                                     |
 |  Jacek Dziedzic, Peter D. Haynes, Nicholas D. M. Hine,        |
 |  Arash. A. Mostofi, Mike C. Payne and Chris-Kriton Skylaris   |
 |                                                               |
 |  Contributors:                                                |
 |  J. Aarons, L. Andrinopoulos, P. W. Avraam, R. A. Bell,       |
 |  A. Bhandari, G. A. Bramley, R. J. Charlton, S. J. Clark,     |
 |  R. J. Clements, G. C. Constantinescu, F. Corsetti,           |
 |  N. Corsini, O. Dieguez, S. M. M. Dubois, K. K. B. Duff,      |
 |  J. M. Escartin, A. Greco, H. Helal, Q. O. Hill, L. P. Lee,   |
 |  J.-H. Li, E. B. Linscott, G. Moynihan, D. D. O`Regan,        |
 |  O. K. Okan, M. J. S. Phipps, C. J. Pickard,                  |
 |  J. C. A. Prentice, M. I. J. Probert, L. E. Ratcliff,         |
 |  M. Robinson, A. Ruiz Serrano, J. S. Spencer, E. W. Tait,     |
 |  G. Teobaldi, D. Turban, V. Vitale, K. A. Wilkinson,          |
 |  C. Weber, J. C. Womack, N. Yeung and T. J. Zuehlsdorff       |
 |                                                               |
 |                                   Copyright (c) 2004-2020     |
 |                                                               |
 |  Please cite:                                                 |
 |  "Introducing ONETEP: Linear-scaling density functional       |
 |   simulations on parallel computers".                         |
 |   C.-K. Skylaris, P. D. Haynes, A. A. Mostofi, M. C. Payne.   |
 |   J. Chem. Phys. 122 084119 (2005).                           |
 |                                                               |
 |          in all publications arising from your use of ONETEP. |
 |                                                               |
 +---------------------------------------------------------------+
 |                                                               |
 |   ONETEP is based on developments described in the following  |
 |   publications:                                               |
 |                                                               |
 |  "Nonorthogonal generalized Wannier function pseudopotential  |
 |   plane-wave method".                                         |
 |   C.-K. Skylaris, A. A. Mostofi, P. D. Haynes, O. Dieguez,    |
 |   M. C. Payne.                                                |
 |   Phys. Rev. B 66 035119 (2002).                              |
 |                                                               |
 |  "Preconditioned iterative minimization for linear-scaling    |
 |   electronic structure calculations".                         |
 |   A. A. Mostofi, P. D. Haynes, C.-K. Skylaris, M. C. Payne.   |
 |   J. Chem. Phys. 119(17), pp.8842-8848 (2003).                |
 |                                                               |
 |  "Total-energy calculations on a real space grid with         |
 |   localized functions and a plane-wave basis".                |
 |   A. A. Mostofi, C.-K. Skylaris, P. D. Haynes, M. C. Payne.   |
 |   Comput. Phys. Commun. 147, pp.788-802 (2002).               |
 |                                                               |
 |  "Accurate kinetic energy evaluation in electronic structure  |
 |   calculations with localized functions on real space grids"  |
 |   C.-K. Skylaris, A. A. Mostofi, P. D. Haynes, C. J. Pickard, |
 |   M. C. Payne.                                                |
 |   Comput. Phys. Commun. 140, pp.315-322 (2001).               |
 |                                                               |
 |  "Accurate ionic forces and geometry optimization in linear-  |
 |   scaling density-functional theory with local orbitals"      |
 |   N. D. M. Hine, M. Robinson, P. D. Haynes, C.-K. Skylaris,   |
 |   M. C. Payne, and A. A. Mostofi.                             |
 |   Phys. Rev. B 83 195102 (2011).                              |
 |                                                               |
 +---------------------------------------------------------------+

Job started: 25-02-2020 14:18 (-0000)
 
Reading parameters from file "3.488156_GO_manual_4x64graphite.dat" ...

WARNING: "cutoff_energy" not specified, but "psinc_spacing" specified.
         Using the latter to set the KE cutoff energy to  732.32021eV,
         thus *overriding* the default.

... done

If your calculation crashes here, before "Checking processes and threads..."
is displayed, then your stack size is insufficient.
If so, use "ulimit -s unlimited" at runtime.
You can disable this check with "check_stack_size F".

Checking processes and threads...
   Determining the default number of threads...
      No default threads set at compilation time: defaulting to 1.
      OpenMP library call suggests 4 threads.
      Hybrid MPI-OpenMP compilation detected.
      Number of MPI processes > 1.
      OMP_NUM_THREADS environment variable present and
      its value matches the one obtained from the OpenMP library call.
      Using this value as default.
      Default threads: 4
      Default applies to threads_max and threads_num_fftboxes.
      Settings in the input file override this default.
   ... done

   Running with 40 MPI processes.
   There are 10 MPI processes running on the same node as the root process.
   Each MPI process is using: 
               1 threads for simulation cell FFTs.
               1 threads for parallel FFT box operations.
               4 threads for loops over batched FFT box operations.
               4 threads in other parallel regions.
... done

Basic input checks...
Resetting ngwf_cg_rotate to TRUE for EDFT calculations
... done

Reading geometry and species blocks from file "3.488156_GO_manual_4x64graphite.dat" ...
    
  PSINC grid spacing along a1 set to   0.511215680000a0 from input file.
  PSINC grid spacing along a2 set to   0.531284090000a0 from input file.
  PSINC grid spacing along a3 set to   0.507051770000a0 from input file.
  Number of PPD points along a3 set to 1.  This is 
  the default value, it may have been provided also in the input file.
... done
 Writing xyz coordinates to file "3.488156_GO_manual_4x64graphite.xyz" ... done


--------------------------------------------------------------------------------
---------------------------------- INPUT FILE ----------------------------------
--------------------------------------------------------------------------------

task : singlepoint                                                              
do_properties : true                                                            
dx_format T                                                                     
edft T                                                                          
output_detail VERBOSE                                                           
write_xyz T                                                                     
xc_functional OPTB88                                                            
PSINC_SPACING 0.51121568 0.53128409 0.50705177                                  
paw T                                                                           
pdos_max_l = 2                                                                  
dos_smear  0.1 eV                                                               
popn_calculate T                                                                
PDOS_PSEUDOATOMIC T                                                             
PDOS_REDUCE_SWS F                                                               
PDOS_CONSTRUCT_BASIS F                                                          
PDOS_LOWDIN T                                                                   
PDOS_ORTH_ATOM_BLOCKS F                                                         
PDOS_LCAO_OPTIMIZE F                                                            
pdos_optados_output T                                                           
homo_plot 0                                                                     
lumo_plot 0                                                                     
homo_dens_plot -1                                                               
lumo_dens_plot -1                                                               
%BLOCK SPECIES                                                                  
C C 6 4 9.0                                                                     
%ENDBLOCK SPECIES                                                               
%BLOCK SPECIES_POT                                                              
C "~/pp/paw/c_pbe_abinit.paw"                                                   
%ENDBLOCK SPECIES_POT                                                           
%BLOCK SPECIES_ATOMIC_SET                                                       
C "SOLVE conf=2s2 2p2"                                                          
%ENDBLOCK SPECIES_ATOMIC_SET                                                    
%BLOCK LATTICE_CART                                                             
32.21  0.00  0.00                                                               
0.00 18.59  0.00                                                                
0.00  0.00 65.92                                                                
%ENDBLOCK LATTICE_CART                                                          
%BLOCK POSITIONS_ABS                                                            
C  0.00  0.00  3.30                                                             
C  0.00  0.00 16.48                                                             
C  0.00  0.00 29.66                                                             
C  0.00  0.00 42.85                                                             
C  0.00  0.00 56.03                                                             
C  0.00  4.65  3.30                                                             
C  0.00  4.65 16.48                                                             
C  0.00  4.65 29.66                                                             
C  0.00  4.65 42.85                                                             
C  0.00  4.65 56.03                                                             
C  4.03  2.32  3.30                                                             
C  4.03  2.32 16.48                                                             
C  4.03  2.32 29.66                                                             
C  4.03  2.32 42.85                                                             
C  4.03  2.32 56.03                                                             
C  8.05  0.00  3.30                                                             
C  8.05  0.00 16.48                                                             
C  8.05  0.00 29.66                                                             
C  8.05  0.00 42.85                                                             
C  8.05  0.00 56.03                                                             
C  0.00  9.30  3.30                                                             
C  0.00  9.30 16.48                                                             
C  0.00  9.30 29.66                                                             
C  0.00  9.30 42.85                                                             
C  0.00  9.30 56.03                                                             
C  4.03  6.97  3.30                                                             
C  4.03  6.97 16.48                                                             
C  4.03  6.97 29.66                                                             
C  4.03  6.97 42.85                                                             
C  4.03  6.97 56.03                                                             
C  8.05  4.65  3.30                                                             
C  8.05  4.65 16.48                                                             
C  8.05  4.65 29.66                                                             
C  8.05  4.65 42.85                                                             
C  8.05  4.65 56.03                                                             
C 12.08  2.32  3.30                                                             
C 12.08  2.32 16.48                                                             
C 12.08  2.32 29.66                                                             
C 12.08  2.32 42.85                                                             
C 12.08  2.32 56.03                                                             
C 16.10  0.00  3.30                                                             
C 16.10  0.00 16.48                                                             
C 16.10  0.00 29.66                                                             
C 16.10  0.00 42.85                                                             
C 16.10  0.00 56.03                                                             
C  0.00 13.95  3.30                                                             
C  0.00 13.95 16.48                                                             
C  0.00 13.95 29.66                                                             
C  0.00 13.95 42.85                                                             
C  0.00 13.95 56.03                                                             
C  4.03 11.62  3.30                                                             
C  4.03 11.62 16.48                                                             
C  4.03 11.62 29.66                                                             
C  4.03 11.62 42.85                                                             
C  4.03 11.62 56.03                                                             
C  8.05  9.30  3.30                                                             
C  8.05  9.30 16.48                                                             
C  8.05  9.30 29.66                                                             
C  8.05  9.30 42.85                                                             
C  8.05  9.30 56.03                                                             
C 12.08  6.97  3.30                                                             
C 12.08  6.97 16.48                                                             
C 12.08  6.97 29.66                                                             
C 12.08  6.97 42.85                                                             
C 12.08  6.97 56.03                                                             
C 16.10  4.65  3.30                                                             
C 16.10  4.65 16.48                                                             
C 16.10  4.65 29.66                                                             
C 16.10  4.65 42.85                                                             
C 16.10  4.65 56.03                                                             
C 20.13  2.32  3.30                                                             
C 20.13  2.32 16.48                                                             
C 20.13  2.32 29.66                                                             
C 20.13  2.32 42.85                                                             
C 20.13  2.32 56.03                                                             
C 24.16  0.00  3.30                                                             
C 24.16  0.00 16.48                                                             
C 24.16  0.00 29.66                                                             
C 24.16  0.00 42.85                                                             
C 24.16  0.00 56.03                                                             
C  4.03 16.27  3.30                                                             
C  4.03 16.27 16.48                                                             
C  4.03 16.27 29.66                                                             
C  4.03 16.27 42.85                                                             
C  4.03 16.27 56.03                                                             
C  8.05 13.95  3.30                                                             
C  8.05 13.95 16.48                                                             
C  8.05 13.95 29.66                                                             
C  8.05 13.95 42.85                                                             
C  8.05 13.95 56.03                                                             
C 12.08 11.62  3.30                                                             
C 12.08 11.62 16.48                                                             
C 12.08 11.62 29.66                                                             
C 12.08 11.62 42.85                                                             
C 12.08 11.62 56.03                                                             
C 16.10  9.30  3.30                                                             
C 16.10  9.30 16.48                                                             
C 16.10  9.30 29.66                                                             
C 16.10  9.30 42.85                                                             
C 16.10  9.30 56.03                                                             
C 20.13  6.97  3.30                                                             
C 20.13  6.97 16.48                                                             
C 20.13  6.97 29.66                                                             
C 20.13  6.97 42.85                                                             
C 20.13  6.97 56.03                                                             
C 24.16  4.65  3.30                                                             
C 24.16  4.65 16.48                                                             
C 24.16  4.65 29.66                                                             
C 24.16  4.65 42.85                                                             
C 24.16  4.65 56.03                                                             
C 28.18  2.32  3.30                                                             
C 28.18  2.32 16.48                                                             
C 28.18  2.32 29.66                                                             
C 28.18  2.32 42.85                                                             
C 28.18  2.32 56.03                                                             
C 12.08 16.27  3.30                                                             
C 12.08 16.27 16.48                                                             
C 12.08 16.27 29.66                                                             
C 12.08 16.27 42.85                                                             
C 12.08 16.27 56.03                                                             
C 16.10 13.95  3.30                                                             
C 16.10 13.95 16.48                                                             
C 16.10 13.95 29.66                                                             
C 16.10 13.95 42.85                                                             
C 16.10 13.95 56.03                                                             
C 20.13 11.62  3.30                                                             
C 20.13 11.62 16.48                                                             
C 20.13 11.62 29.66                                                             
C 20.13 11.62 42.85                                                             
C 20.13 11.62 56.03                                                             
C 24.16  9.30  3.30                                                             
C 24.16  9.30 16.48                                                             
C 24.16  9.30 29.66                                                             
C 24.16  9.30 42.85                                                             
C 24.16  9.30 56.03                                                             
C 28.18  6.97  3.30                                                             
C 28.18  6.97 16.48                                                             
C 28.18  6.97 29.66                                                             
C 28.18  6.97 42.85                                                             
C 28.18  6.97 56.03                                                             
C 20.13 16.27  3.30                                                             
C 20.13 16.27 16.48                                                             
C 20.13 16.27 29.66                                                             
C 20.13 16.27 42.85                                                             
C 20.13 16.27 56.03                                                             
C 24.16 13.95  3.30                                                             
C 24.16 13.95 16.48                                                             
C 24.16 13.95 29.66                                                             
C 24.16 13.95 42.85                                                             
C 24.16 13.95 56.03                                                             
C 28.18 11.62  3.30                                                             
C 28.18 11.62 16.48                                                             
C 28.18 11.62 29.66                                                             
C 28.18 11.62 42.85                                                             
C 28.18 11.62 56.03                                                             
C 28.18 16.27  3.30                                                             
C 28.18 16.27 16.48                                                             
C 28.18 16.27 29.66                                                             
C 28.18 16.27 42.85                                                             
C 28.18 16.27 56.03                                                             
C  0.00  0.00  9.89                                                             
C  0.00  0.00 23.07                                                             
C  0.00  0.00 36.25                                                             
C  0.00  0.00 49.44                                                             
C  0.00  0.00 62.62                                                             
C  0.00  4.65  9.89                                                             
C  0.00  4.65 23.07                                                             
C  0.00  4.65 36.25                                                             
C  0.00  4.65 49.44                                                             
C  0.00  4.65 62.62                                                             
C  4.03  2.32  9.89                                                             
C  4.03  2.32 23.07                                                             
C  4.03  2.32 36.25                                                             
C  4.03  2.32 49.44                                                             
C  4.03  2.32 62.62                                                             
C  8.05  0.00  9.89                                                             
C  8.05  0.00 23.07                                                             
C  8.05  0.00 36.25                                                             
C  8.05  0.00 49.44                                                             
C  8.05  0.00 62.62                                                             
C  0.00  9.30  9.89                                                             
C  0.00  9.30 23.07                                                             
C  0.00  9.30 36.25                                                             
C  0.00  9.30 49.44                                                             
C  0.00  9.30 62.62                                                             
C  4.03  6.97  9.89                                                             
C  4.03  6.97 23.07                                                             
C  4.03  6.97 36.25                                                             
C  4.03  6.97 49.44                                                             
C  4.03  6.97 62.62                                                             
C  8.05  4.65  9.89                                                             
C  8.05  4.65 23.07                                                             
C  8.05  4.65 36.25                                                             
C  8.05  4.65 49.44                                                             
C  8.05  4.65 62.62                                                             
C 12.08  2.32  9.89                                                             
C 12.08  2.32 23.07                                                             
C 12.08  2.32 36.25                                                             
C 12.08  2.32 49.44                                                             
C 12.08  2.32 62.62                                                             
C 16.10  0.00  9.89                                                             
C 16.10  0.00 23.07                                                             
C 16.10  0.00 36.25                                                             
C 16.10  0.00 49.44                                                             
C 16.10  0.00 62.62                                                             
C  0.00 13.95  9.89                                                             
C  0.00 13.95 23.07                                                             
C  0.00 13.95 36.25                                                             
C  0.00 13.95 49.44                                                             
C  0.00 13.95 62.62                                                             
C  4.03 11.62  9.89                                                             
C  4.03 11.62 23.07                                                             
C  4.03 11.62 36.25                                                             
C  4.03 11.62 49.44                                                             
C  4.03 11.62 62.62                                                             
C  8.05  9.30  9.89                                                             
C  8.05  9.30 23.07                                                             
C  8.05  9.30 36.25                                                             
C  8.05  9.30 49.44                                                             
C  8.05  9.30 62.62                                                             
C 12.08  6.97  9.89                                                             
C 12.08  6.97 23.07                                                             
C 12.08  6.97 36.25                                                             
C 12.08  6.97 49.44                                                             
C 12.08  6.97 62.62                                                             
C 16.10  4.65  9.89                                                             
C 16.10  4.65 23.07                                                             
C 16.10  4.65 36.25                                                             
C 16.10  4.65 49.44                                                             
C 16.10  4.65 62.62                                                             
C 20.13  2.32  9.89                                                             
C 20.13  2.32 23.07                                                             
C 20.13  2.32 36.25                                                             
C 20.13  2.32 49.44                                                             
C 20.13  2.32 62.62                                                             
C 24.16  0.00  9.89                                                             
C 24.16  0.00 23.07                                                             
C 24.16  0.00 36.25                                                             
C 24.16  0.00 49.44                                                             
C 24.16  0.00 62.62                                                             
C  4.03 16.27  9.89                                                             
C  4.03 16.27 23.07                                                             
C  4.03 16.27 36.25                                                             
C  4.03 16.27 49.44                                                             
C  4.03 16.27 62.62                                                             
C  8.05 13.95  9.89                                                             
C  8.05 13.95 23.07                                                             
C  8.05 13.95 36.25                                                             
C  8.05 13.95 49.44                                                             
C  8.05 13.95 62.62                                                             
C 12.08 11.62  9.89                                                             
C 12.08 11.62 23.07                                                             
C 12.08 11.62 36.25                                                             
C 12.08 11.62 49.44                                                             
C 12.08 11.62 62.62                                                             
C 16.10  9.30  9.89                                                             
C 16.10  9.30 23.07                                                             
C 16.10  9.30 36.25                                                             
C 16.10  9.30 49.44                                                             
C 16.10  9.30 62.62                                                             
C 20.13  6.97  9.89                                                             
C 20.13  6.97 23.07                                                             
C 20.13  6.97 36.25                                                             
C 20.13  6.97 49.44                                                             
C 20.13  6.97 62.62                                                             
C 24.16  4.65  9.89                                                             
C 24.16  4.65 23.07                                                             
C 24.16  4.65 36.25                                                             
C 24.16  4.65 49.44                                                             
C 24.16  4.65 62.62                                                             
C 28.18  2.32  9.89                                                             
C 28.18  2.32 23.07                                                             
C 28.18  2.32 36.25                                                             
C 28.18  2.32 49.44                                                             
C 28.18  2.32 62.62                                                             
C 12.08 16.27  9.89                                                             
C 12.08 16.27 23.07                                                             
C 12.08 16.27 36.25                                                             
C 12.08 16.27 49.44                                                             
C 12.08 16.27 62.62                                                             
C 16.10 13.95  9.89                                                             
C 16.10 13.95 23.07                                                             
C 16.10 13.95 36.25                                                             
C 16.10 13.95 49.44                                                             
C 16.10 13.95 62.62                                                             
C 20.13 11.62  9.89                                                             
C 20.13 11.62 23.07                                                             
C 20.13 11.62 36.25                                                             
C 20.13 11.62 49.44                                                             
C 20.13 11.62 62.62                                                             
C 24.16  9.30  9.89                                                             
C 24.16  9.30 23.07                                                             
C 24.16  9.30 36.25                                                             
C 24.16  9.30 49.44                                                             
C 24.16  9.30 62.62                                                             
C 28.18  6.97  9.89                                                             
C 28.18  6.97 23.07                                                             
C 28.18  6.97 36.25                                                             
C 28.18  6.97 49.44                                                             
C 28.18  6.97 62.62                                                             
C 20.13 16.27  9.89                                                             
C 20.13 16.27 23.07                                                             
C 20.13 16.27 36.25                                                             
C 20.13 16.27 49.44                                                             
C 20.13 16.27 62.62                                                             
C 24.16 13.95  9.89                                                             
C 24.16 13.95 23.07                                                             
C 24.16 13.95 36.25                                                             
C 24.16 13.95 49.44                                                             
C 24.16 13.95 62.62                                                             
C 28.18 11.62  9.89                                                             
C 28.18 11.62 23.07                                                             
C 28.18 11.62 36.25                                                             
C 28.18 11.62 49.44                                                             
C 28.18 11.62 62.62                                                             
C 28.18 16.27  9.89                                                             
C 28.18 16.27 23.07                                                             
C 28.18 16.27 36.25                                                             
C 28.18 16.27 49.44                                                             
C 28.18 16.27 62.62                                                             
C  1.34  2.32  3.30                                                             
C  1.34  2.32 16.48                                                             
C  1.34  2.32 29.66                                                             
C  1.34  2.32 42.85                                                             
C  1.34  2.32 56.03                                                             
C  5.37  0.00  3.30                                                             
C  5.37  0.00 16.48                                                             
C  5.37  0.00 29.66                                                             
C  5.37  0.00 42.85                                                             
C  5.37  0.00 56.03                                                             
C  1.34  6.97  3.30                                                             
C  1.34  6.97 16.48                                                             
C  1.34  6.97 29.66                                                             
C  1.34  6.97 42.85                                                             
C  1.34  6.97 56.03                                                             
C  5.37  4.65  3.30                                                             
C  5.37  4.65 16.48                                                             
C  5.37  4.65 29.66                                                             
C  5.37  4.65 42.85                                                             
C  5.37  4.65 56.03                                                             
C  9.39  2.32  3.30                                                             
C  9.39  2.32 16.48                                                             
C  9.39  2.32 29.66                                                             
C  9.39  2.32 42.85                                                             
C  9.39  2.32 56.03                                                             
C 13.42  0.00  3.30                                                             
C 13.42  0.00 16.48                                                             
C 13.42  0.00 29.66                                                             
C 13.42  0.00 42.85                                                             
C 13.42  0.00 56.03                                                             
C  1.34 11.62  3.30                                                             
C  1.34 11.62 16.48                                                             
C  1.34 11.62 29.66                                                             
C  1.34 11.62 42.85                                                             
C  1.34 11.62 56.03                                                             
C  5.37  9.30  3.30                                                             
C  5.37  9.30 16.48                                                             
C  5.37  9.30 29.66                                                             
C  5.37  9.30 42.85                                                             
C  5.37  9.30 56.03                                                             
C  9.39  6.97  3.30                                                             
C  9.39  6.97 16.48                                                             
C  9.39  6.97 29.66                                                             
C  9.39  6.97 42.85                                                             
C  9.39  6.97 56.03                                                             
C 13.42  4.65  3.30                                                             
C 13.42  4.65 16.48                                                             
C 13.42  4.65 29.66                                                             
C 13.42  4.65 42.85                                                             
C 13.42  4.65 56.03                                                             
C 17.45  2.32  3.30                                                             
C 17.45  2.32 16.48                                                             
C 17.45  2.32 29.66                                                             
C 17.45  2.32 42.85                                                             
C 17.45  2.32 56.03                                                             
C 21.47  0.00  3.30                                                             
C 21.47  0.00 16.48                                                             
C 21.47  0.00 29.66                                                             
C 21.47  0.00 42.85                                                             
C 21.47  0.00 56.03                                                             
C  1.34 16.27  3.30                                                             
C  1.34 16.27 16.48                                                             
C  1.34 16.27 29.66                                                             
C  1.34 16.27 42.85                                                             
C  1.34 16.27 56.03                                                             
C  5.37 13.95  3.30                                                             
C  5.37 13.95 16.48                                                             
C  5.37 13.95 29.66                                                             
C  5.37 13.95 42.85                                                             
C  5.37 13.95 56.03                                                             
C  9.39 11.62  3.30                                                             
C  9.39 11.62 16.48                                                             
C  9.39 11.62 29.66                                                             
C  9.39 11.62 42.85                                                             
C  9.39 11.62 56.03                                                             
C 13.42  9.30  3.30                                                             
C 13.42  9.30 16.48                                                             
C 13.42  9.30 29.66                                                             
C 13.42  9.30 42.85                                                             
C 13.42  9.30 56.03                                                             
C 17.45  6.97  3.30                                                             
C 17.45  6.97 16.48                                                             
C 17.45  6.97 29.66                                                             
C 17.45  6.97 42.85                                                             
C 17.45  6.97 56.03                                                             
C 21.47  4.65  3.30                                                             
C 21.47  4.65 16.48                                                             
C 21.47  4.65 29.66                                                             
C 21.47  4.65 42.85                                                             
C 21.47  4.65 56.03                                                             
C 25.50  2.32  3.30                                                             
C 25.50  2.32 16.48                                                             
C 25.50  2.32 29.66                                                             
C 25.50  2.32 42.85                                                             
C 25.50  2.32 56.03                                                             
C 29.52  0.00  3.30                                                             
C 29.52  0.00 16.48                                                             
C 29.52  0.00 29.66                                                             
C 29.52  0.00 42.85                                                             
C 29.52  0.00 56.03                                                             
C  9.39 16.27  3.30                                                             
C  9.39 16.27 16.48                                                             
C  9.39 16.27 29.66                                                             
C  9.39 16.27 42.85                                                             
C  9.39 16.27 56.03                                                             
C 13.42 13.95  3.30                                                             
C 13.42 13.95 16.48                                                             
C 13.42 13.95 29.66                                                             
C 13.42 13.95 42.85                                                             
C 13.42 13.95 56.03                                                             
C 17.45 11.62  3.30                                                             
C 17.45 11.62 16.48                                                             
C 17.45 11.62 29.66                                                             
C 17.45 11.62 42.85                                                             
C 17.45 11.62 56.03                                                             
C 21.47  9.30  3.30                                                             
C 21.47  9.30 16.48                                                             
C 21.47  9.30 29.66                                                             
C 21.47  9.30 42.85                                                             
C 21.47  9.30 56.03                                                             
C 25.50  6.97  3.30                                                             
C 25.50  6.97 16.48                                                             
C 25.50  6.97 29.66                                                             
C 25.50  6.97 42.85                                                             
C 25.50  6.97 56.03                                                             
C 29.52  4.65  3.30                                                             
C 29.52  4.65 16.48                                                             
C 29.52  4.65 29.66                                                             
C 29.52  4.65 42.85                                                             
C 29.52  4.65 56.03                                                             
C 17.45 16.27  3.30                                                             
C 17.45 16.27 16.48                                                             
C 17.45 16.27 29.66                                                             
C 17.45 16.27 42.85                                                             
C 17.45 16.27 56.03                                                             
C 21.47 13.95  3.30                                                             
C 21.47 13.95 16.48                                                             
C 21.47 13.95 29.66                                                             
C 21.47 13.95 42.85                                                             
C 21.47 13.95 56.03                                                             
C 25.50 11.62  3.30                                                             
C 25.50 11.62 16.48                                                             
C 25.50 11.62 29.66                                                             
C 25.50 11.62 42.85                                                             
C 25.50 11.62 56.03                                                             
C 29.52  9.30  3.30                                                             
C 29.52  9.30 16.48                                                             
C 29.52  9.30 29.66                                                             
C 29.52  9.30 42.85                                                             
C 29.52  9.30 56.03                                                             
C 25.50 16.27  3.30                                                             
C 25.50 16.27 16.48                                                             
C 25.50 16.27 29.66                                                             
C 25.50 16.27 42.85                                                             
C 25.50 16.27 56.03                                                             
C 29.52 13.95  3.30                                                             
C 29.52 13.95 16.48                                                             
C 29.52 13.95 29.66                                                             
C 29.52 13.95 42.85                                                             
C 29.52 13.95 56.03                                                             
C  2.68  0.00  9.89                                                             
C  2.68  0.00 23.07                                                             
C  2.68  0.00 36.25                                                             
C  2.68  0.00 49.44                                                             
C  2.68  0.00 62.62                                                             
C  2.68  4.65  9.89                                                             
C  2.68  4.65 23.07                                                             
C  2.68  4.65 36.25                                                             
C  2.68  4.65 49.44                                                             
C  2.68  4.65 62.62                                                             
C  6.71  2.32  9.89                                                             
C  6.71  2.32 23.07                                                             
C  6.71  2.32 36.25                                                             
C  6.71  2.32 49.44                                                             
C  6.71  2.32 62.62                                                             
C 10.74  0.00  9.89                                                             
C 10.74  0.00 23.07                                                             
C 10.74  0.00 36.25                                                             
C 10.74  0.00 49.44                                                             
C 10.74  0.00 62.62                                                             
C  2.68  9.30  9.89                                                             
C  2.68  9.30 23.07                                                             
C  2.68  9.30 36.25                                                             
C  2.68  9.30 49.44                                                             
C  2.68  9.30 62.62                                                             
C  6.71  6.97  9.89                                                             
C  6.71  6.97 23.07                                                             
C  6.71  6.97 36.25                                                             
C  6.71  6.97 49.44                                                             
C  6.71  6.97 62.62                                                             
C 10.74  4.65  9.89                                                             
C 10.74  4.65 23.07                                                             
C 10.74  4.65 36.25                                                             
C 10.74  4.65 49.44                                                             
C 10.74  4.65 62.62                                                             
C 14.76  2.32  9.89                                                             
C 14.76  2.32 23.07                                                             
C 14.76  2.32 36.25                                                             
C 14.76  2.32 49.44                                                             
C 14.76  2.32 62.62                                                             
C 18.79  0.00  9.89                                                             
C 18.79  0.00 23.07                                                             
C 18.79  0.00 36.25                                                             
C 18.79  0.00 49.44                                                             
C 18.79  0.00 62.62                                                             
C  2.68 13.95  9.89                                                             
C  2.68 13.95 23.07                                                             
C  2.68 13.95 36.25                                                             
C  2.68 13.95 49.44                                                             
C  2.68 13.95 62.62                                                             
C  6.71 11.62  9.89                                                             
C  6.71 11.62 23.07                                                             
C  6.71 11.62 36.25                                                             
C  6.71 11.62 49.44                                                             
C  6.71 11.62 62.62                                                             
C 10.74  9.30  9.89                                                             
C 10.74  9.30 23.07                                                             
C 10.74  9.30 36.25                                                             
C 10.74  9.30 49.44                                                             
C 10.74  9.30 62.62                                                             
C 14.76  6.97  9.89                                                             
C 14.76  6.97 23.07                                                             
C 14.76  6.97 36.25                                                             
C 14.76  6.97 49.44                                                             
C 14.76  6.97 62.62                                                             
C 18.79  4.65  9.89                                                             
C 18.79  4.65 23.07                                                             
C 18.79  4.65 36.25                                                             
C 18.79  4.65 49.44                                                             
C 18.79  4.65 62.62                                                             
C 22.81  2.32  9.89                                                             
C 22.81  2.32 23.07                                                             
C 22.81  2.32 36.25                                                             
C 22.81  2.32 49.44                                                             
C 22.81  2.32 62.62                                                             
C 26.84  0.00  9.89                                                             
C 26.84  0.00 23.07                                                             
C 26.84  0.00 36.25                                                             
C 26.84  0.00 49.44                                                             
C 26.84  0.00 62.62                                                             
C  6.71 16.27  9.89                                                             
C  6.71 16.27 23.07                                                             
C  6.71 16.27 36.25                                                             
C  6.71 16.27 49.44                                                             
C  6.71 16.27 62.62                                                             
C 10.74 13.95  9.89                                                             
C 10.74 13.95 23.07                                                             
C 10.74 13.95 36.25                                                             
C 10.74 13.95 49.44                                                             
C 10.74 13.95 62.62                                                             
C 14.76 11.62  9.89                                                             
C 14.76 11.62 23.07                                                             
C 14.76 11.62 36.25                                                             
C 14.76 11.62 49.44                                                             
C 14.76 11.62 62.62                                                             
C 18.79  9.30  9.89                                                             
C 18.79  9.30 23.07                                                             
C 18.79  9.30 36.25                                                             
C 18.79  9.30 49.44                                                             
C 18.79  9.30 62.62                                                             
C 22.81  6.97  9.89                                                             
C 22.81  6.97 23.07                                                             
C 22.81  6.97 36.25                                                             
C 22.81  6.97 49.44                                                             
C 22.81  6.97 62.62                                                             
C 26.84  4.65  9.89                                                             
C 26.84  4.65 23.07                                                             
C 26.84  4.65 36.25                                                             
C 26.84  4.65 49.44                                                             
C 26.84  4.65 62.62                                                             
C 30.86  2.32  9.89                                                             
C 30.86  2.32 23.07                                                             
C 30.86  2.32 36.25                                                             
C 30.86  2.32 49.44                                                             
C 30.86  2.32 62.62                                                             
C 14.76 16.27  9.89                                                             
C 14.76 16.27 23.07                                                             
C 14.76 16.27 36.25                                                             
C 14.76 16.27 49.44                                                             
C 14.76 16.27 62.62                                                             
C 18.79 13.95  9.89                                                             
C 18.79 13.95 23.07                                                             
C 18.79 13.95 36.25                                                             
C 18.79 13.95 49.44                                                             
C 18.79 13.95 62.62                                                             
C 22.81 11.62  9.89                                                             
C 22.81 11.62 23.07                                                             
C 22.81 11.62 36.25                                                             
C 22.81 11.62 49.44                                                             
C 22.81 11.62 62.62                                                             
C 26.84  9.30  9.89                                                             
C 26.84  9.30 23.07                                                             
C 26.84  9.30 36.25                                                             
C 26.84  9.30 49.44                                                             
C 26.84  9.30 62.62                                                             
C 30.86  6.97  9.89                                                             
C 30.86  6.97 23.07                                                             
C 30.86  6.97 36.25                                                             
C 30.86  6.97 49.44                                                             
C 30.86  6.97 62.62                                                             
C 22.81 16.27  9.89                                                             
C 22.81 16.27 23.07                                                             
C 22.81 16.27 36.25                                                             
C 22.81 16.27 49.44                                                             
C 22.81 16.27 62.62                                                             
C 26.84 13.95  9.89                                                             
C 26.84 13.95 23.07                                                             
C 26.84 13.95 36.25                                                             
C 26.84 13.95 49.44                                                             
C 26.84 13.95 62.62                                                             
C 30.86 11.62  9.89                                                             
C 30.86 11.62 23.07                                                             
C 30.86 11.62 36.25                                                             
C 30.86 11.62 49.44                                                             
C 30.86 11.62 62.62                                                             
C 30.86 16.27  9.89                                                             
C 30.86 16.27 23.07                                                             
C 30.86 16.27 36.25                                                             
C 30.86 16.27 49.44                                                             
C 30.86 16.27 62.62                                                             
%ENDBLOCK POSITIONS_ABS                                                         

--------------------------------------------------------------------------------
-------------------------------- END INPUT FILE --------------------------------
--------------------------------------------------------------------------------


 
<<<<<<<<<<<<<<<<<<<<<<<<<<<<<<<<< Full system >>>>>>>>>>>>>>>>>>>>>>>>>>>>>>>>>>
<<<<<<<<<<<<<<<<<<<<<<<<<<< PAW Dataset information >>>>>>>>>>>>>>>>>>>>>>>>>>>
File: ~/pp/paw/c_pbe_abinit.paw; rc = 1.25 bohr; shape type =  3; rshape = 1.25 bohr;
  Atomic number:  6;  ionic charge:  4.000000
    Partial Wave 1: l = 0
    Partial Wave 2: l = 0
    Partial Wave 3: l = 1
    Partial Wave 4: l = 1
  Core charge supplied for Nonlinear Core Corrections
<<<<<<<<<<<<<<<<<<<<<<<<<<<<<<<<<<<<<<< >>>>>>>>>>>>>>>>>>>>>>>>>>>>>>>>>>>>>>>

-------------------------- Atom counting information ---------------------------
Symbol    Natoms    Nngwfs    Nprojs
  C        640      2560      5120
.......   ......    ......    ......
Totals:    640      2560      5120
--------------------------------------------------------------------------------

=============================== PSINC grid sizes ===============================
                      Simulation cell:   63 x  35 x 130
                              FFT-box:   63 x  35 x 117
                                  PPD:    7 x   5 x   1
Grid space d1=  0.511269841270a0 (KE cutoff=  29.06054Eh = 790.77748eV)
Grid space d2=  0.531142857143a0 (KE cutoff=  26.92659Eh = 732.70972eV)
Grid space d3=  0.507076923077a0 (KE cutoff=  29.54312Eh = 803.90911eV)
================================================================================
  
WARNING in cell_grid_distribute:
Average of less than one 23-slab per node, so workload cannot be
equally balanced between nodes.

********************* Fourier parallelisation information **********************
       Coarse grid (whole simulation cell) dimensions:     63    35   130
          Real-space ('12') slabs/node (min max mean):      3     4     3
         Recip-space ('23') slabs/node (min max mean):      0     1     0
********************************************************************************

********************* Fourier parallelisation information **********************
       Double grid (whole simulation cell) dimensions:    126    70   260
          Real-space ('12') slabs/node (min max mean):      6     7     6
         Recip-space ('23') slabs/node (min max mean):      1     2     1
********************************************************************************

Atom SCF Calculation for C  : Z (AE atom) =   6 : Z (PS atom) =   4
Config String: 2s2 2p2
Orbitals (num,occ):  2     2.00 2.00
Orbitals   (num,l):  2        0    1
Real-space Grid (nr,dr,rmax): 1293    0.0069659443    9.0000000000
Spherical Bessel Basis (nsws,lmax,cutoff):   37    2  161.4736382572
Confining potential (l,width,scale):  0    3.0000000000  100.0000000000
Confining potential (l,width,scale):  1    3.0000000000  100.0000000000
  1         -5.4468762137   -1.3311033486    4.5135257941   -1.6400141247
  2         -5.4563922850   -1.3925089082    4.4492606193   -1.6178955363
  3         -5.4591606672   -1.4162756486    4.4239316220   -1.6104942496
  4         -5.4639338613   -1.4240698331    4.4156521757   -1.6083566999
  5         -5.4657436445   -1.4272842389    4.4122438165   -1.6075116305
  6         -5.4665049591   -1.4285796230    4.4108740217   -1.6071800157
  7         -5.4668137280   -1.4291083664    4.4103163978   -1.6070462938
  8         -5.4669397753   -1.4293243321    4.4100892688   -1.6069921003
  9         -5.4669910134   -1.4294128082    4.4099964732   -1.6069700140
 10         -5.4670118707   -1.4294491026    4.4099585094   -1.6069609935
 11         -5.4670203648   -1.4294640137    4.4099429536   -1.6069573023
 12         -5.4670238269   -1.4294701480    4.4099365706   -1.6069557895
 13         -5.4670252393   -1.4294726750    4.4099339478   -1.6069551687
 14         -5.4670258160   -1.4294737172    4.4099328686   -1.6069549136
 15         -5.4670260518   -1.4294741476    4.4099324241   -1.6069548086
 16         -5.4670261483   -1.4294743256    4.4099322407   -1.6069547654
Atom SCF converged after  16 iterations to a total energy of     -5.46702615

Determining parallel strategy ...
... using space-filling curve
... NGWF load balancing: max     64;  min     64;  average     64
... Projector load balancing: max    128;  min    128;  average    128
... done
Calculating Ewald energy ...
              Ewald: real-space energy =    9488.262882
        Ewald: reciprocal-space energy =       0.145035
         Ewald: (sum_charge)**2 Energy =   11167.625436
         Ewald: (sum_charge**2) Energy =     882.878311
                          Ewald Energy =   -2562.095829
Basis initialisation ...... NGWF spheres initialised
... Projector spheres initialised
... NGWF tight boxes initialised
... Projector tight boxes initialised
... Tight-boxes gathered
... NGWF basis size (local,global):     693268  27922112
... PAW projector initialisation
... done

============================= Charge Augmentation ==============================
                           Aug box size:   11 x  11 x  11
================================================================================

========================== Sparse matrix information ===========================
                        Overlap matrix filling:  42.19%
                        Density kernel filling: 100.00%
              NGWF-Proj overlap matrix filling:  12.19%
                    Aug Overlap matrix filling:  47.03%
                    Hamiltonian matrix filling:  47.03%
                  NGWF diagonal matrix filling:   0.16%
                             KS matrix filling: 100.00% 
                           KSKS matrix filling: 100.00% 
================================================================================

Sparse matrix initialisation ... done
NGWF initialisation ...... done
============ Calculation of NGWF S^-1 using Hotelling algorithm ================ 
         Iteration  |  Frobenius norm and Maximum abs value    (of I-S*S_n^-1)   
               1       0.49057847E+02     0.97598150E+00
               2       0.47826075E+02     0.95378458E+00
               3       0.45974438E+02     0.91394649E+00
               4       0.43569338E+02     0.84796098E+00
               5       0.40690259E+02     0.74990683E+00
               6       0.37348688E+02     0.67806090E+00
               7       0.33874400E+02     0.63040061E+00
               8       0.30565114E+02     0.59066327E+00
               9       0.27026247E+02     0.54723643E+00
              10       0.22549089E+02     0.47898298E+00
              11       0.16711201E+02     0.37033740E+00
              12       0.99669916E+01     0.22649785E+00
              13       0.40569390E+01     0.90317502E-01
              14       0.80293384E+00     0.16453130E-01
              15       0.37261369E-01     0.66811877E-03
              16       0.10143201E-03     0.14009510E-05
              17       0.11295663E-08     0.96028741E-11
              18       0.75146564E-13     0.35527137E-14
================================================================================
Calculating core density ...
================================= Core Density =================================
               Core den box size:   21 x  21 x  21
================================================================================
 ... done
Up spin density kernel initialisation ...... done

Writing density kernel to file "3.488156_GO_manual_4x64graphite.dkn" ... done

>>> Optimising kernel for current NGWFs:

--------------------------- Ensemble-DFT optimisation --------------------------
Running ScaLAPACK on   40 processor(s).

--------------------------------------------------------------------------------
  Iter                              Commutator    Free_energy(A=E-TS)     DeltaA
#    0                          0.000037862919   -3651.84547719815691  -3.65E+03

Step                       =       0.381966011250
Energy                     =   -3651.845445863479
Entropy (-TS)              =      -0.000031334594
Free energy (A=E-TS)       =   -3651.845477198157
Est. 0K Energy 0.5*(E+A)   =   -3651.845461530818
Residual Non-orthogonality =       0.000000000000
Residual N_electrons       =      -0.000000000084

Spin          Integrated_Ne            Fermi_level     Delta_Fermi_level
   1      2560.000000000439         0.190998048944              1.91E-01

                           Spin 1          
     Orb      H-eigenvalues     Occupancies
       1 |    -0.5305635539    1.0000000000 | 
                          ------
    1276 |     0.1569312835    0.9999787139 | 
    1277 |     0.1575416222    0.9999741895 | 
    1278 |     0.1575535203    0.9999740924 | 
    1279 |     0.1579338575    0.9999707864 | 
    1280 |     0.1585528510    0.9999644802 | 
                 - Gap at zero temperature -
    1281 |     0.2260842094    0.0000154277 | 
    1282 |     0.2260916546    0.0000153914 | 
    1283 |     0.2261306279    0.0000152032 | 
    1284 |     0.2263083507    0.0000143735 | 
    1285 |     0.2263157413    0.0000143400 | 
                          ------
    2560 |     1.0210442292    0.0000000000 | 

                       |  Abs_value |  Threshold | Converged
     Delta_Free_energy |   3.65E+03 |   1.00E-06 |        No
     Delta_Energy      |   3.65E+03 |   1.00E-04 |        No
     Delta_Entropy     |   3.13E-05 |   1.00E-04 |       Yes
     Commutator        |   3.79E-05 |   1.00E-05 |        No
     Delta_Fermi_level |   1.91E-01 |   1.00E-03 |        No

  Line search of the free energy minimum:
  Step_type        Step             Free_energy   Predicted_free_energy
.   Initial    0.000000    -3651.84547719815691
.    Trial1    0.381966    -3651.84699270270312
.    Trial2    0.618034    -3651.84719507833915
. Quadratic    0.585171    -3651.84720037198667    -3651.84720051348722

--------------------------------------------------------------------------------
  Iter                              Commutator    Free_energy(A=E-TS)     DeltaA
#    1                          0.000021207762   -3651.84720037198667  -1.72E-03

Step                       =       0.585171067566
Energy                     =   -3651.847169404768
Entropy (-TS)              =      -0.000030967092
Free energy (A=E-TS)       =   -3651.847200371987
Est. 0K Energy 0.5*(E+A)   =   -3651.847184888377
Residual Non-orthogonality =       0.000000000000
Residual N_electrons       =      -0.000000000127

Spin          Integrated_Ne            Fermi_level     Delta_Fermi_level
   1      2560.000000000664         0.191258789357              2.61E-04

                           Spin 1          
     Orb      H-eigenvalues     Occupancies
       1 |    -0.5320460998    1.0000000000 | 
                          ------
    1276 |     0.1572362605    0.9999784145 | 
    1277 |     0.1576907516    0.9999750833 | 
    1278 |     0.1577057778    0.9999749648 | 
    1279 |     0.1582442649    0.9999703246 | 
    1280 |     0.1587105038    0.9999656178 | 
                 - Gap at zero temperature -
    1281 |     0.2263252519    0.0000155239 | 
    1282 |     0.2263586717    0.0000153609 | 
    1283 |     0.2263905170    0.0000152073 | 
    1284 |     0.2265661260    0.0000143869 | 
    1285 |     0.2265757999    0.0000143431 | 
                          ------
    2560 |     1.0209686557    0.0000000000 | 

                       |  Abs_value |  Threshold | Converged
     Delta_Free_energy |   1.72E-03 |   1.00E-06 |        No
     Delta_Energy      |   1.72E-03 |   1.00E-04 |        No
     Delta_Entropy     |   3.68E-07 |   1.00E-04 |       Yes
     Commutator        |   2.12E-05 |   1.00E-05 |        No
     Delta_Fermi_level |   2.61E-04 |   1.00E-03 |       Yes

  Line search of the free energy minimum:
  Step_type        Step             Free_energy   Predicted_free_energy
.   Initial    0.000000    -3651.84720037198667
.    Trial1    0.585171    -3651.84693814334059
.    Trial2    0.223515    -3651.84759240715584
. Quadratic    0.255787    -3651.84759868640640    -3651.84759874842257

--------------------------------------------------------------------------------
  Iter                              Commutator    Free_energy(A=E-TS)     DeltaA
#    2                          0.000011691204   -3651.84759868640640  -3.98E-04

Step                       =       0.255786995275
Energy                     =   -3651.847567821725
Entropy (-TS)              =      -0.000030864708
Free energy (A=E-TS)       =   -3651.847598686406
Est. 0K Energy 0.5*(E+A)   =   -3651.847583254065
Residual Non-orthogonality =       0.000000000000
Residual N_electrons       =       0.000000000026

Spin          Integrated_Ne            Fermi_level     Delta_Fermi_level
   1      2559.999999999862         0.191297388809              3.86E-05

                           Spin 1          
     Orb      H-eigenvalues     Occupancies
       1 |    -0.5323185940    1.0000000000 | 
                          ------
    1276 |     0.1572342414    0.9999786896 | 
    1277 |     0.1577403818    0.9999749964 | 
    1278 |     0.1577551639    0.9999748794 | 
    1279 |     0.1582397263    0.9999707261 | 
    1280 |     0.1587573400    0.9999655282 | 
                 - Gap at zero temperature -
    1281 |     0.2263909900    0.0000153914 | 
    1282 |     0.2264241889    0.0000152309 | 
    1283 |     0.2264538070    0.0000150892 | 
    1284 |     0.2266388096    0.0000142329 | 
    1285 |     0.2266483091    0.0000141903 | 
                          ------
    2560 |     1.0209413888    0.0000000000 | 

                       |  Abs_value |  Threshold | Converged
     Delta_Free_energy |   3.98E-04 |   1.00E-06 |        No
     Delta_Energy      |   3.98E-04 |   1.00E-04 |        No
     Delta_Entropy     |   1.02E-07 |   1.00E-04 |       Yes
     Commutator        |   1.17E-05 |   1.00E-05 |        No
     Delta_Fermi_level |   3.86E-05 |   1.00E-03 |       Yes

  Line search of the free energy minimum:
  Step_type        Step             Free_energy   Predicted_free_energy
.   Initial    0.000000    -3651.84759868640640
.    Trial1    0.255787    -3651.84771195425083
.    Trial2    0.540051    -3651.84769121326372
. Quadratic    0.359721    -3651.84772225437473    -3651.84772227109715

--------------------------------------------------------------------------------
  Iter                              Commutator    Free_energy(A=E-TS)     DeltaA
#    3                          0.000008093954   -3651.84772225437473  -1.24E-04

Step                       =       0.359720755116
Energy                     =   -3651.847691490579
Entropy (-TS)              =      -0.000030764020
Free energy (A=E-TS)       =   -3651.847722254375
Est. 0K Energy 0.5*(E+A)   =   -3651.847706872477
Residual Non-orthogonality =       0.000000000000
Residual N_electrons       =       0.000000000224

Spin          Integrated_Ne            Fermi_level     Delta_Fermi_level
   1      2559.999999998830         0.191338639274              4.13E-05

                           Spin 1          
     Orb      H-eigenvalues     Occupancies
       1 |    -0.5325954648    1.0000000000 | 
                          ------
    1276 |     0.1572528466    0.9999788414 | 
    1277 |     0.1577784644    0.9999750214 | 
    1278 |     0.1577928759    0.9999749075 | 
    1279 |     0.1582573627    0.9999709436 | 
    1280 |     0.1587940790    0.9999655773 | 
                 - Gap at zero temperature -
    1281 |     0.2264490602    0.0000153099 | 
    1282 |     0.2264818442    0.0000151522 | 
    1283 |     0.2265105654    0.0000150154 | 
    1284 |     0.2266997119    0.0000141449 | 
    1285 |     0.2267090644    0.0000141032 | 
                          ------
    2560 |     1.0209316293    0.0000000000 | 

                       |  Abs_value |  Threshold | Converged
     Delta_Free_energy |   1.24E-04 |   1.00E-06 |        No
     Delta_Energy      |   1.24E-04 |   1.00E-04 |        No
     Delta_Entropy     |   1.01E-07 |   1.00E-04 |       Yes
     Commutator        |   8.09E-06 |   1.00E-05 |       Yes
     Delta_Fermi_level |   4.13E-05 |   1.00E-03 |       Yes

  Line search of the free energy minimum:
  Step_type        Step             Free_energy   Predicted_free_energy
.   Initial    0.000000    -3651.84772225437473
.    Trial1    0.359721    -3651.84776842778228
.    Trial2    0.604286    -3651.84768377338924
. Quadratic    0.261594    -3651.84777600008147    -3651.84777598862911

--------------------------------------------------------------------------------
  Iter                              Commutator    Free_energy(A=E-TS)     DeltaA
#    4                          0.000005375435   -3651.84777600008147  -5.37E-05

Step                       =       0.261594008689
Energy                     =   -3651.847745280067
Entropy (-TS)              =      -0.000030720047
Free energy (A=E-TS)       =   -3651.847776000081
Est. 0K Energy 0.5*(E+A)   =   -3651.847760640074
Residual Non-orthogonality =       0.000000000000
Residual N_electrons       =       0.000000000033

Spin          Integrated_Ne            Fermi_level     Delta_Fermi_level
   1      2559.999999999829         0.191358192842              1.96E-05

                           Spin 1          
[...]
 C   275 -- C   555       -0.10      5.37000
 C   274 -- C   554       -0.10      5.37000
 C   273 -- C   553       -0.10      5.37000
 C   272 -- C   552       -0.10      5.37000
 C   271 -- C   551       -0.10      5.37000
 C   270 -- C   550       -0.10      5.37000
 C   269 -- C   549       -0.10      5.37000
 C   268 -- C   548       -0.10      5.37000
 C   267 -- C   547       -0.10      5.37000
 C   266 -- C   546       -0.10      5.37000
 C   130 -- C   465       -0.09      5.37000
 C   129 -- C   464       -0.09      5.37000
 C   128 -- C   463       -0.09      5.37000
 C   127 -- C   462       -0.09      5.37000
 C   126 -- C   461       -0.09      5.37000
 C   240 -- C   525       -0.10      5.37000
 C   239 -- C   524       -0.10      5.37000
 C   238 -- C   523       -0.10      5.37000
 C   237 -- C   522       -0.10      5.37000
 C   236 -- C   521       -0.10      5.37000
 C    23 -- C   478       -0.09      5.37202
 C    49 -- C   469       -0.09      5.37202
 C    48 -- C   468       -0.09      5.37202
 C    47 -- C   467       -0.09      5.37202
 C    22 -- C   477       -0.09      5.37202
 C    46 -- C   466       -0.09      5.37202
 C    21 -- C   476       -0.09      5.37202
 C    25 -- C   480       -0.09      5.37202
 C    24 -- C   479       -0.09      5.37202
 C    50 -- C   470       -0.09      5.37202
 C    24 -- C   449       -0.09      5.37202
 C     6 -- C   416       -0.09      5.37202
 C    23 -- C   448       -0.09      5.37202
 C    22 -- C   447       -0.09      5.37202
 C    10 -- C   470       -0.09      5.37202
 C     5 -- C   450       -0.09      5.37202
 C    21 -- C   446       -0.09      5.37202
 C    10 -- C   420       -0.09      5.37202
 C     9 -- C   469       -0.09      5.37202
 C     9 -- C   419       -0.09      5.37202
 C     8 -- C   468       -0.09      5.37202
 C     4 -- C   449       -0.09      5.37202
 C     8 -- C   418       -0.09      5.37202
 C   285 -- C   580       -0.09      5.37202
 C   284 -- C   579       -0.09      5.37202
 C   283 -- C   578       -0.09      5.37202
 C   282 -- C   577       -0.09      5.37202
 C   281 -- C   576       -0.09      5.37202
 C     2 -- C   447       -0.09      5.37202
 C     7 -- C   467       -0.09      5.37202
 C   260 -- C   605       -0.09      5.37202
 C   259 -- C   604       -0.09      5.37202
 C   258 -- C   603       -0.09      5.37202
 C   257 -- C   602       -0.09      5.37202
 C   256 -- C   601       -0.09      5.37202
 C     7 -- C   417       -0.09      5.37202
 C     1 -- C   446       -0.09      5.37202
 C     6 -- C   466       -0.09      5.37202
 C    25 -- C   450       -0.09      5.37202
 C     3 -- C   448       -0.09      5.37202
 C   219 -- C   569       -0.09      5.37202
 C   218 -- C   568       -0.09      5.37202
 C   217 -- C   567       -0.09      5.37202
 C   216 -- C   566       -0.09      5.37202
 C   250 -- C   540       -0.09      5.37202
 C   249 -- C   539       -0.09      5.37202
 C   248 -- C   538       -0.09      5.37202
 C   247 -- C   537       -0.09      5.37202
 C   246 -- C   536       -0.09      5.37202
 C   220 -- C   570       -0.09      5.37202
 C   205 -- C   550       -0.09      5.37202
 C   204 -- C   549       -0.09      5.37202
 C   203 -- C   548       -0.09      5.37202
 C   202 -- C   547       -0.09      5.37202
 C   201 -- C   546       -0.09      5.37202
 C    95 -- C   365       -0.09      5.37202
 C    94 -- C   364       -0.09      5.37202
 C    93 -- C   363       -0.09      5.37202
 C    92 -- C   362       -0.09      5.37202
 C    91 -- C   361       -0.09      5.37202
 C    65 -- C   395       -0.09      5.37202
 C    64 -- C   394       -0.09      5.37202
 C    63 -- C   393       -0.09      5.37202
 C    30 -- C   355       -0.09      5.37202
 C    62 -- C   392       -0.09      5.37202
 C    61 -- C   391       -0.09      5.37202
 C    29 -- C   354       -0.09      5.37202
 C   260 -- C   550       -0.09      5.37202
 C   259 -- C   549       -0.09      5.37202
 C    28 -- C   353       -0.09      5.37202
 C   258 -- C   548       -0.09      5.37202
 C   257 -- C   547       -0.09      5.37202
 C   256 -- C   546       -0.09      5.37202
 C    27 -- C   352       -0.09      5.37202
 C    26 -- C   351       -0.09      5.37202
 C    55 -- C   335       -0.09      5.37202
 C    54 -- C   334       -0.09      5.37202
 C    53 -- C   333       -0.09      5.37202
 C   230 -- C   580       -0.09      5.37202
 C   230 -- C   525       -0.09      5.37202
 C   229 -- C   579       -0.09      5.37202
 C   229 -- C   524       -0.09      5.37202
 C   228 -- C   578       -0.09      5.37202
 C    52 -- C   332       -0.09      5.37202
 C   228 -- C   523       -0.09      5.37202
 C   227 -- C   577       -0.09      5.37202
 C   227 -- C   522       -0.09      5.37202
 C   226 -- C   576       -0.09      5.37202
 C   226 -- C   521       -0.09      5.37202
 C    51 -- C   331       -0.09      5.37202
 C   220 -- C   515       -0.09      5.37202
 C   219 -- C   514       -0.09      5.37202
 C   218 -- C   513       -0.09      5.37202
 C   217 -- C   512       -0.09      5.37202
 C   216 -- C   511       -0.09      5.37202
 C   195 -- C   540       -0.09      5.37202
 C   195 -- C   500       -0.09      5.37202
 C   194 -- C   539       -0.09      5.37202
 C   194 -- C   499       -0.09      5.37202
 C   193 -- C   538       -0.09      5.37202
 C   193 -- C   498       -0.09      5.37202
 C   192 -- C   537       -0.09      5.37202
 C   192 -- C   497       -0.09      5.37202
 C   191 -- C   536       -0.09      5.37202
 C   191 -- C   496       -0.09      5.37202
 C   180 -- C   515       -0.09      5.37202
 C   179 -- C   514       -0.09      5.37202
 C   178 -- C   513       -0.09      5.37202
 C   177 -- C   512       -0.09      5.37202
 C   176 -- C   511       -0.09      5.37202
 C   150 -- C   440       -0.09      5.37202
 C   149 -- C   439       -0.09      5.37202
 C   148 -- C   438       -0.09      5.37202
 C   147 -- C   437       -0.09      5.37202
 C   146 -- C   436       -0.09      5.37202
 C   135 -- C   460       -0.09      5.37202
 C   134 -- C   459       -0.09      5.37202
 C   133 -- C   458       -0.09      5.37202
 C   132 -- C   457       -0.09      5.37202
 C   131 -- C   456       -0.09      5.37202
 C    11 -- C   331       -0.09      5.37202
 C    95 -- C   425       -0.09      5.37202
 C    94 -- C   424       -0.09      5.37202
 C    93 -- C   423       -0.09      5.37202
 C    92 -- C   422       -0.09      5.37202
 C    91 -- C   421       -0.09      5.37202
 C    85 -- C   355       -0.09      5.37202
 C    40 -- C   365       -0.09      5.37202
 C    84 -- C   354       -0.09      5.37202
 C    83 -- C   353       -0.09      5.37202
 C    82 -- C   352       -0.09      5.37202
 C    39 -- C   364       -0.09      5.37202
 C    81 -- C   351       -0.09      5.37202
 C    38 -- C   363       -0.09      5.37202
 C    37 -- C   362       -0.09      5.37202
 C    36 -- C   361       -0.09      5.37202
 C    15 -- C   335       -0.09      5.37202
 C    65 -- C   345       -0.09      5.37202
 C    64 -- C   344       -0.09      5.37202
 C    63 -- C   343       -0.09      5.37202
 C    30 -- C   325       -0.09      5.37202
 C    62 -- C   342       -0.09      5.37202
 C    14 -- C   334       -0.09      5.37202
 C    61 -- C   341       -0.09      5.37202
 C    29 -- C   324       -0.09      5.37202
 C    28 -- C   323       -0.09      5.37202
 C    13 -- C   333       -0.09      5.37202
 C    27 -- C   322       -0.09      5.37202
 C   120 -- C   395       -0.09      5.37202
 C    55 -- C   385       -0.09      5.37202
 C   119 -- C   394       -0.09      5.37202
 C   118 -- C   393       -0.09      5.37202
 C   117 -- C   392       -0.09      5.37202
 C    54 -- C   384       -0.09      5.37202
 C    26 -- C   321       -0.09      5.37202
 C   116 -- C   391       -0.09      5.37202
 C    53 -- C   383       -0.09      5.37202
 C    12 -- C   332       -0.09      5.37202
 C    52 -- C   382       -0.09      5.37202
 C    51 -- C   381       -0.09      5.37202
 C   106 -- C   436       -0.09      5.37202
 C   106 -- C   376       -0.09      5.37202
 C    80 -- C   410       -0.09      5.37202
 C    79 -- C   409       -0.09      5.37202
 C    78 -- C   408       -0.09      5.37202
 C    77 -- C   407       -0.09      5.37202
 C    76 -- C   406       -0.09      5.37202
 C   135 -- C   410       -0.09      5.37202
 C   134 -- C   409       -0.09      5.37202
 C   133 -- C   408       -0.09      5.37202
 C   132 -- C   407       -0.09      5.37202
 C   131 -- C   406       -0.09      5.37202
 C   110 -- C   440       -0.09      5.37202
 C   110 -- C   380       -0.09      5.37202
 C   109 -- C   439       -0.09      5.37202
 C   109 -- C   379       -0.09      5.37202
 C   108 -- C   438       -0.09      5.37202
 C   108 -- C   378       -0.09      5.37202
 C   107 -- C   437       -0.09      5.37202
 C   107 -- C   377       -0.09      5.37202
 C   215 -- C   635       -0.09      5.38000
 C   214 -- C   634       -0.09      5.38000
 C   213 -- C   633       -0.09      5.38000
 C   212 -- C   632       -0.09      5.38000
 C   211 -- C   631       -0.09      5.38000
 C   190 -- C   620       -0.09      5.38000
 C   189 -- C   619       -0.09      5.38000
 C   188 -- C   618       -0.09      5.38000
 C   187 -- C   617       -0.09      5.38000
 C   186 -- C   616       -0.09      5.38000
 C   175 -- C   595       -0.09      5.38000
 C   174 -- C   594       -0.09      5.38000
 C   173 -- C   593       -0.09      5.38000
 C   172 -- C   592       -0.09      5.38000
 C   171 -- C   591       -0.09      5.38000
 C   245 -- C   640       -0.09      5.38000
 C   244 -- C   639       -0.09      5.38000
 C   243 -- C   638       -0.09      5.38000
 C   242 -- C   637       -0.09      5.38000
 C   241 -- C   636       -0.09      5.38000
==================================================


=================== Orbital energy and occupancy information ===================

      Total number of orbitals:    2560
        Occupancy sum (kernel):    1280.000000000
   Occupancy sum (eigenvalues):    1280.000000000
                 HOMO-LUMO gap:       0.000002495 Eh
                 Mid-gap level:       0.272819977 Eh

                        Orbital | Energy (Eh) | Occupancy
                            1    -0.481634476   1.0000000
                        .......   ...........   .........
                         1272     0.203319351   0.9999887
                         1273     0.203781042   0.9999869
                         1274     0.203789834   0.9999869
                         1275     0.207085457   0.9999629
                         1276     0.207095802   0.9999628
                         1277     0.207546925   0.9999571
                         1278     0.207557202   0.9999570
                         1279     0.208119179   0.9999486
                         1280     0.208573133   0.9999407
                         1281     0.272818730   0.0000261
                        ....... -- gap at 0K -- .........
                         1282     0.272821225   0.0000260
                         1283     0.273069635   0.0000241
                         1284     0.273072092   0.0000241
                         1285     0.273408635   0.0000216
                         1286     0.273414351   0.0000216
                         1287     0.273672515   0.0000199
                         1288     0.273678086   0.0000199
                         1289     0.273851757   0.0000188
                         1290     0.273948056   0.0000182
                         1291     0.273952293   0.0000182
                        .......   ...........   .........
                         2560     1.128008176   0.0000000

================================================================================

===================== Writing canonical molecular orbitals =====================
| Orbital  Energy (eV)  Norm     |
| HOMO      7.42377539  1.000000 | Writing "3.488156_GO_manual_4x64graphite_HOMO.cube" ... done
Writing "3.488156_GO_manual_4x64graphite_HOMO.dx" ... done
| LUMO      7.42384327  1.000000 | Writing "3.488156_GO_manual_4x64graphite_LUMO.cube" ... done
Writing "3.488156_GO_manual_4x64graphite_LUMO.dx" ... done
================================================================================
 
===================== Density of States (DOS) calculation ======================
Writing "3.488156_GO_manual_4x64graphite_DOS.txt" ...  done
================================================================================
 
Writing bands to file "3.488156_GO_manual_4x64graphite.val_bands" ... done
 
================ Projected Density of States (pDOS) calculation ================
 
Constructing AM resolved functions  ...... done
Writing NGWF plot files in formats: CUBE DX ...  done
 
Performing overlap integrals ...  done
 
Computing pDOS weights ...  done
 
All bands spilling parameter =   3.50 %
Occupancy-weighted spilling parameter =   0.88 %
 
 => Outputting data for OptaDOS <=
 
Writing pDOS weights to file "3.488156_GO_manual_4x64graphite.val_pdos_bin" ... done
 
Writing band gradients to file "3.488156_GO_manual_4x64graphite.val_dome_bin" ... done
 
Writing Castep output cell file to "3.488156_GO_manual_4x64graphite-out.cell" ... done
 
 => Computing Gaussian smeared pDOS <= 
Writing "3.488156_GO_manual_4x64graphite_PDOS.txt" ...  done
 
 => Computing Occupancy-weighted Gaussian smeared pDOS <= 
Writing "3.488156_GO_manual_4x64graphite_occ_PDOS.txt" ...  done
  => Band centres: 
 S band centre of group 1:  -15.578427 eV
 P band centre of group 1:   -8.467871 eV
  Band centres done. <=
  => Integrated number of electrons in each AM band: 
 S num electrons of group 1:  574.191431
 P num electrons of group 1: 1963.291256
  Integrated number of electrons done. <=
================================================================================

------------------------------ TIMING INFORMATION ------------------------------
AVERAGE TIME:    3574.981s on     40 node(s)                                    
TOTAL TIME:      3574.982s on     40 node(s)                                    
================= AVERAGE TIMINGS FROM ALL NODES (CUMULATIVE) ==================
|| TAG                                    #calls    cpu time   %total  Gflops ||
|| work_imbalance                       :     1        0.00s   0.000%  ------ ||
|| paw_tcore_hartree_on_grid            :     1        0.01s   0.000%  ------ ||
|| paw_tcore_density                    :     1        0.01s   0.000%  ------ ||
|| paw_sphere_density_on_grid           :     1        0.01s   0.000%  ------ ||
|| sparse_set_to_garbage                :   159        0.02s   0.001%  ------ ||
|| paw_dij_hartree                      :   324        0.04s   0.001%  ------ ||
|| pseudo_make_structure_factor         :     1        0.07s   0.002%  ------ ||
|| basis_extract_function_from_box      :  1792        0.08s   0.002%  ------ ||
|| paw_species_calc_proj_prec_mat       :     1        0.12s   0.003%  ------ ||
|| paw_dataset_init                     :     1        0.20s   0.005%  ------ ||
|| density_init_guess_real              :     1        0.33s   0.009%  ------ ||
|| ngwfs_initialise_from_radial         :     2        0.67s   0.019%  ------ ||
|| sparse_init                          :     1        1.00s   0.028%  ------ ||
|| dense_normal_eigensolve              :     1        1.12s   0.031%  ------ ||
|| hartree_on_grid                      :   243        1.14s   0.032%  ------ ||
|| restart_kernel_write                 :    15        1.17s   0.033%  ------ ||
|| projectors_init_fftbox_recip         :   141        2.72s   0.076%  ------ ||
|| ewald_calculate_energy               :     1        3.17s   0.089%  ------ ||
|| fourier_apply_box_pair               :  2656        4.39s   0.123% 560.829 ||
|| basis_copy_function_to_box           : 23104        5.02s   0.140%  ------ ||
|| augmentation_screen_dij              :   248        5.52s   0.154%  ------ ||
|| sw_init                              :     1        6.73s   0.188%  ------ ||
|| sparse_embed_hotelling_invert_embed  :    27        7.59s   0.212%  ------ ||
|| ngwf_gradient_coeffs                 :    14        9.85s   0.276%  ------ ||
|| sparse_trace                         :  2932       13.18s   0.369%  ------ ||
|| fourier_apply_cell_backward          :  7504       13.39s   0.375%  68.602 ||
|| fourier_apply_cell_forward           :  7019       14.20s   0.397%  60.522 ||
|| cell_grid_extract_box_real           :  9740       14.87s   0.416%  ------ ||
|| cell_grid_deposit_box_real           : 31280       19.02s   0.532%  ------ ||
|| paw_dij_xc                           :   324       22.14s   0.619%  ------ ||
|| aug_nonlocal_mat                     :   310       32.08s   0.897%  ------ ||
|| density_fftbox_deposit_to_cell       : 15552       37.79s   1.057%  ------ ||
|| augmentation_density_on_grid         :   243       43.68s   1.222%  ------ ||
|| hamiltonian_energy_components        :     3       46.88s   1.311%  ------ ||
|| function_ops_brappd_ketppd           :    56       53.99s   1.510%  ------ ||
|| eigenstates_pdos                     :     1       54.82s   1.533%  ------ ||
|| eigenstates_calculate                :     1       59.08s   1.653%  ------ ||
|| nlxc_vdw_energy                      :   484       59.28s   1.658%  ------ ||
|| projectors_func_ovlp_box             :    28       62.27s   1.742%  ------ ||
|| xc_energy_potential                  :   242       68.52s   1.917%  ------ ||
|| integrals_kinetic                    :    27       89.03s   2.490%  ------ ||
|| dense_eigensolve                     :   212       99.31s   2.778%  ------ ||
|| properties_calculate                 :     1      105.06s   2.939%  ------ ||
|| potential_apply_to_ngwf_batch        :   304      116.97s   3.272%  ------ ||
|| sparse_product                       :  2976      119.89s   3.353%  ------ ||
|| restart_ngwfs_tightbox_output        :    13      167.77s   4.693%  ------ ||
|| basis_dot_function_with_box          : 7.305M     200.49s   5.608%  ------ ||
|| fourier_apply_box                    : 72880      225.83s   6.317% 979.611 ||
|| edft_diag_ngwf_ham                   :   211      228.99s   6.405%  ------ ||
|| projectors_gradient_batch            :    56      252.87s   7.073%  ------ ||
|| integrals_locpot_mat_els_batch       :   304      259.82s   7.268%  ------ ||
|| density_fftbox_interpolate_multiply  : 15552      301.83s   8.443%  ------ ||
|| projectors_grad_precond_batch        :    56      349.26s   9.770%  ------ ||
|| density_batch_interp_deposit         :   972      375.67s  10.508%  ------ ||
|| integrals_locpot_dbl_grid            :    76      378.07s  10.576%  ------ ||
|| edft_apply_smearing_operator         :   211      449.56s  12.575%  ------ ||
|| basis_add_function_to_box            : 20.67M     548.47s  15.342%  ------ ||
|| ngwf_gradient_build_batch            :    56      644.30s  18.023%  ------ ||
|| density_batch_row_sums               :   972      746.11s  20.870%  ------ ||
|| ngwf_gradient_batch                  :    56      856.65s  23.962%  ------ ||
|| ngwf_gradient_lnv                    :    14      886.45s  24.796%  ------ ||
|| density_on_dbl_grid                  :   243     1134.57s  31.736%  ------ ||
|| hamiltonian_lhxc_calculate           :   238     1225.44s  34.278%  ------ ||
|| edft_calculate                       :    14     2037.15s  56.984%  ------ ||
|| ngwf_cg_optimise                     :     1     3443.69s  96.328%  ------ ||
|| total_time                           :     1     3574.98s 100.000%  ------ ||
================================================================================
Overhead of generating timer report: 
- 0 ms averaging over threads,
- 6 ms ensuring consistency across MPI ranks,
- 0 ms printing in order.

Job completed: 25-02-2020 15:17 (-0000)

