 +---------------------------------------------------------------+
 |                                                               |
 |        ####### #     # ####### ####### ####### ######         |
 |        #     # ##    # #          #    #       #     #        |
 |        #     # # #   # #          #    #       #     #        |
 |        #     # #  #  # #####      #    #####   ######         |
 |        #     # #   # # #          #    #       #              |
 |        #     # #    ## #          #    #       #              |
 |        ####### #     # #######    #    ####### #              |
 |                                                               |
 |        Linear-Scaling Ab Initio Total Energy Program          |
 |                                                               |
 |          Release for academic collaborators of ODG            |
 |                                             Version 6.1.3.6   |
 |                                                               |
 +---------------------------------------------------------------+
 |                                                               |
 |  Authors:                                                     |
 |  Jacek Dziedzic, Peter D. Haynes, Nicholas D. M. Hine,        |
 |  Arash A. Mostofi, Mike C. Payne and Chris-Kriton Skylaris    |
 |                                                               |
 |  Contributors:                                                |
 |  J. Aarons, L. Andrinopoulos, P. W. Avraam, R. A. Bell,       |
 |  A. Bhandari, G. A. Bramley, R. J. Charlton, S. J. Clark,     |
 |  R. J. Clements, G. C. Constantinescu, F. Corsetti,           |
 |  N. Corsini, O. Dieguez, S. M. M. Dubois, K. K. B. Duff,      |
 |  J. M. Escartin, A. Greco, H. Helal, Q. O. Hill, L. P. Lee,   |
 |  J.-H. Li, E. B. Linscott, G. Moynihan, D. D. O`Regan,        |
 |  O. K. Okan, M. J. S. Phipps, C. J. Pickard,                  |
 |  J. C. A. Prentice, M. I. J. Probert, L. E. Ratcliff,         |
 |  M. Robinson, A. Ruiz Serrano, J. S. Spencer, E. W. Tait,     |
 |  G. Teobaldi, D. Turban, V. Vitale, K. A. Wilkinson,          |
 |  C. Weber, J. C. Womack, N. Yeung and T. J. Zuehlsdorff       |
 |                                                               |
 |                                   Copyright (c) 2004-2021     |
 |                                                               |
 |  Please cite:                                                 |
 |  "The ONETEP linear-scaling density functional theory program"|
 |   J. Chem. Phys. 152(17) 174111 (2020)                        |
 |                                                               |
 |          in all publications arising from your use of ONETEP. |
 |                                                               |
 +---------------------------------------------------------------+
 |                                                               |
 |   ONETEP is based on developments described in the following  |
 |   publications:                                               |
 |                                                               |
 |  "Nonorthogonal generalized Wannier function pseudopotential  |
 |   plane-wave method".                                         |
 |   C.-K. Skylaris, A. A. Mostofi, P. D. Haynes, O. Dieguez,    |
 |   M. C. Payne.                                                |
 |   Phys. Rev. B 66 035119 (2002).                              |
 |                                                               |
 |  "Preconditioned iterative minimization for linear-scaling    |
 |   electronic structure calculations".                         |
 |   A. A. Mostofi, P. D. Haynes, C.-K. Skylaris, M. C. Payne.   |
 |   J. Chem. Phys. 119(17), pp.8842-8848 (2003).                |
 |                                                               |
 |  "Total-energy calculations on a real space grid with         |
 |   localized functions and a plane-wave basis".                |
 |   A. A. Mostofi, C.-K. Skylaris, P. D. Haynes, M. C. Payne.   |
 |   Comput. Phys. Commun. 147, pp.788-802 (2002).               |
 |                                                               |
 |  "Accurate kinetic energy evaluation in electronic structure  |
 |   calculations with localized functions on real space grids"  |
 |   C.-K. Skylaris, A. A. Mostofi, P. D. Haynes, C. J. Pickard, |
 |   M. C. Payne.                                                |
 |   Comput. Phys. Commun. 140, pp.315-322 (2001).               |
 |                                                               |
 |  "Accurate ionic forces and geometry optimization in linear-  |
 |   scaling density-functional theory with local orbitals"      |
 |   N. D. M. Hine, M. Robinson, P. D. Haynes, C.-K. Skylaris,   |
 |   M. C. Payne, and A. A. Mostofi.                             |
 |   Phys. Rev. B 83 195102 (2011).                              |
 |                                                               |
 +---------------------------------------------------------------+

Job started: 19-12-2021 13:53 (-0000)
 
Reading parameters from file "60/592nano.dat" ...... done

If your calculation crashes here, before "Checking processes and threads..."
is displayed, then your stack size is insufficient.
If so, use "ulimit -s unlimited" at runtime.
You can disable this check with "check_stack_size F".

Checking processes and threads...
   Determining the default number of threads...
      No default threads set at compilation time: defaulting to 1.
      OpenMP library call suggests 4 threads.
      Hybrid MPI-OpenMP compilation detected.
      Number of MPI processes > 1.
      OMP_NUM_THREADS environment variable present and
      its value matches the one obtained from the OpenMP library call.
      Using this value as default.
      Default threads: 4
      Default applies to threads_max and threads_num_fftboxes.
      Settings in the input file override this default.
   ... done

   Running with 160 MPI processes.
   There are 16 MPI processes running on the same node as the root process.
   Each MPI process is using: 
               1 threads for simulation cell FFTs.
               1 threads for parallel FFT box operations.
               4 threads for loops over batched FFT box operations.
               4 threads in other parallel regions.
... done

Basic input checks...
Resetting ngwf_cg_rotate to TRUE for EDFT calculations
... done

Reading geometry and species blocks from file "60/592nano.dat" ...    
  Number of PPD points along a3 set to 1.  This is 
  the default value, it may have been provided also in the input file.
... done
 Writing xyz coordinates to file "60/592nano.xyz" ... done


--------------------------------------------------------------------------------
---------------------------------- INPUT FILE ----------------------------------
--------------------------------------------------------------------------------

task : singlepoint                                                              
do_properties : true                                                            
dx_format T                                                                     
edft T                                                                          
edft_spin_fix 3                                                                 
output_detail VERBOSE                                                           
timings_level 3                                                                 
write_xyz T                                                                     
edft_update_scheme: pulay_mix                                                   
edft_ham_diis_size: 10                                                          
edft_trial_step: 0.1                                                            
xc_functional OPTPBE                                                            
cutoff_energy 830 eV                                                            
paw T                                                                           
geom_disp_tol 0.06 bohr                                                         
geom_energy_tol 6E-6 hartree                                                    
geom_force_tol 0.012 "ha/bohr"                                                  
geom_max_iter 25                                                                
EDFT_MAXIT 30                                                                   
pdos_max_l = 2                                                                  
dos_smear  0.1 eV                                                               
popn_calculate T                                                                
PDOS_PSEUDOATOMIC T                                                             
PDOS_REDUCE_SWS F                                                               
PDOS_CONSTRUCT_BASIS F                                                          
PDOS_LOWDIN T                                                                   
PDOS_ORTH_ATOM_BLOCKS F                                                         
PDOS_LCAO_OPTIMIZE F                                                            
pdos_optados_output T                                                           
homo_plot 0                                                                     
lumo_plot 0                                                                     
homo_dens_plot -1                                                               
lumo_dens_plot -1                                                               
%BLOCK SPECIES                                                                  
C C 6 4 9.0                                                                     
H H 1 1 9.0                                                                     
Li Li 3 5 9.0                                                                   
%ENDBLOCK SPECIES                                                               
%BLOCK SPECIES_POT                                                              
C "~/pp/paw/c_pbe_abinit.paw"                                                   
H "~/pp/paw/h_pbe_abinit.paw"                                                   
Li "~/pp/paw/li_pbe_abinit.paw"                                                 
%ENDBLOCK SPECIES_POT                                                           
%BLOCK SPECIES_ATOMIC_SET                                                       
C "SOLVE conf=2s2 2p2"                                                          
H "SOLVE conf=1s1"                                                              
Li "SOLVE conf=1s2 2s1 2p0"                                                     
%ENDBLOCK SPECIES_ATOMIC_SET                                                    
%BLOCK SPECIES_LDOS_GROUPS                                                      
C                                                                               
H                                                                               
Li                                                                              
%ENDBLOCK SPECIES_LDOS_GROUPS                                                   
%BLOCK LATTICE_CART                                                             
94.486315650000      0.000000000000       0.000000000000                        
0.000000000000       94.486315650000      0.000000000000                        
0.000000000000       0.000000000000       94.486315650000                       
%ENDBLOCK LATTICE_CART                                                          
%BLOCK POSITIONS_ABS                                                            
C 42.863484 41.442930 31.346353                                                 
C 38.771745 43.727218 31.529151                                                 
C 41.535301 39.118629 30.876926                                                 
C 45.564671 41.469063 31.351786                                                 
C 37.443363 41.398582 31.095012                                                 
C 37.395255 46.047060 31.702172                                                 
C 54.971036 48.597232 31.117288                                                 
C 54.902801 53.282511 31.096421                                                 
C 53.646247 46.248815 31.214435                                                 
C 38.612708 57.793353 31.648207                                                 
C 42.635330 60.194609 31.567603                                                 
C 37.296869 55.439727 31.718234                                                 
C 53.531360 55.606964 31.240275                                                 
C 45.339333 60.218328 31.543539                                                 
C 46.937813 39.162852 31.007302                                                 
C 41.487740 43.759316 31.612061                                                 
C 34.693170 46.025763 31.472277                                                 
C 50.967325 41.544525 31.075446                                                 
C 53.592596 50.926380 31.309677                                                 
C 34.663149 50.708677 31.588923                                                 
C 41.316703 57.833971 31.763347                                                 
C 38.823067 39.110586 30.700117                                                 
C 55.008240 43.929345 30.909545                                                 
C 49.603825 43.861054 31.411050                                                 
C 37.356122 50.745327 31.871496                                                 
C 49.440756 57.911560 31.546047                                                 
C 34.610403 55.391389 31.388581                                                 
C 57.645823 48.622042 30.639155                                                 
C 50.753604 60.260801 31.256513                                                 
C 57.565358 53.302574 30.549932                                                 
C 37.236234 60.102081 31.243998                                                 
C 54.827193 57.960027 30.924789                                                 
C 50.830928 55.583789 31.543151                                                 
C 46.732085 57.889765 31.688529                                                 
C 41.253715 62.501874 31.205991                                                 
C 46.660026 62.554084 31.208283                                                 
C 46.897778 43.825416 31.540425                                                 
C 50.941101 46.215846 31.467101                                                 
C 38.727635 48.409731 31.902095                                                 
C 38.675880 53.111625 31.920669                                                 
C 49.622175 39.214560 30.871219                                                 
C 33.352746 48.352439 31.409200                                                 
C 42.919046 36.806364 30.502091                                                 
C 53.658298 41.596740 30.789399                                                 
C 34.730311 41.380764 30.864498                                                 
C 33.312781 53.034419 31.290934                                                 
C 45.616462 36.824122 30.608250                                                 
C 33.353488 43.695471 31.014042                                                 
C 58.925091 50.974204 30.283099                                                 
C 53.437943 60.268719 30.939972                                                 
C 49.349764 62.563286 31.058246                                                 
C 38.554060 62.455058 31.023118                                                 
C 50.894190 50.898608 31.593842                                                 
C 42.701532 55.507882 31.910136                                                 
C 42.816409 46.113202 31.831243                                                 
C 57.695666 43.949172 30.540749                                                 
C 59.009496 46.292514 30.352363                                                 
C 33.233074 57.692709 31.002356                                                 
C 34.531507 60.045442 30.951627                                                 
C 58.850435 55.671331 30.167378                                                 
C 49.509525 53.228791 31.695759                                                 
C 45.412826 55.533554 31.849886                                                 
C 57.488534 57.992561 30.387135                                                 
C 49.564973 48.539039 31.657889                                                 
C 41.380211 53.142986 31.998755                                                 
C 42.577975 64.837905 30.816429                                                 
C 41.436926 48.445357 31.963381                                                 
C 45.525879 46.147498 31.775293                                                 
C 45.276924 64.863290 30.825916                                                 
C 37.490358 36.775922 30.069183                                                 
C 46.800452 53.202626 31.860942                                                 
C 42.764047 50.808884 32.012647                                                 
C 46.857400 48.508283 31.829170                                                 
C 41.577875 34.461110 29.981192                                                 
C 33.379565 39.064573 30.297015                                                 
C 50.984661 36.902195 30.372308                                                 
C 55.018236 39.288729 30.265274                                                 
C 30.663473 48.335633 30.959464                                                 
C 46.990887 34.505665 30.176224                                                 
C 30.626115 53.006801 30.796921                                                 
C 30.650327 43.688408 30.549265                                                 
C 45.475492 50.840176 31.942005                                                 
C 61.599437 51.000634 29.585877                                                 
C 38.885680 34.505090 29.830391                                                 
C 34.805346 36.803493 29.893655                                                 
C 37.152598 64.772557 30.470647                                                 
C 59.054301 41.605386 30.186569                                                 
C 54.736522 62.611932 30.436139                                                 
C 50.652742 64.892175 30.511160                                                 
C 61.680571 46.312224 29.704531                                                 
C 30.535777 57.648100 30.607438                                                 
C 61.522440 55.693849 29.516161                                                 
C 33.125995 62.374282 30.627507                                                 
C 41.190039 67.144962 30.265624                                                 
C 58.777798 60.354978 29.923103                                                 
C 46.605550 67.195197 30.304003                                                 
C 49.672438 34.591824 30.179275                                                 
C 29.353298 46.034610 30.708463                                                 
C 62.916215 48.682209 29.345165                                                 
C 53.672491 36.944760 30.325873                                                 
C 62.843727 53.360364 29.327243                                                 
C 57.673513 39.311097 30.158327                                                 
C 29.299733 50.655357 30.910191                                                 
C 42.987603 32.184362 29.747094                                                 
C 34.472073 64.697247 30.468702                                                 
C 38.498473 67.061508 30.114307                                                 
C 29.271492 55.284443 30.670786                                                 
C 30.679443 39.067394 30.273172                                                 
C 45.641959 32.216244 29.786057                                                 
C 29.323077 41.364379 30.285126                                                 
C 57.368089 62.639137 30.069444                                                 
C 53.355696 64.934004 30.527509                                                 
C 49.288910 67.157822 30.228282                                                 
H 37.868596 32.730188 29.442194                                                 
H 33.800978 35.059777 29.370637                                                 
C 62.999729 43.969879 29.512830                                                 
C 61.708173 41.656512 29.769017                                                 
C 62.754734 58.064390 29.193025                                                 
C 29.177234 59.973591 30.586631                                                 
C 30.445020 62.278020 30.660296                                                 
C 61.397450 60.339217 29.337438                                                 
C 42.559743 69.436094 29.942522                                                 
C 45.211304 69.454413 29.911249                                                 
H 64.869311 53.384964 28.850507                                                 
H 64.921356 48.704767 28.780776                                                 
H 50.722734 32.862894 29.647721                                                 
H 41.958152 30.401741 29.450866                                                 
H 29.695555 37.229109 30.221014                                                 
H 27.299245 46.033363 30.309388                                                 
H 37.448098 68.791327 29.625573                                                 
H 33.412672 66.462483 30.155261                                                 
H 58.693037 37.519295 29.835582                                                 
H 27.200484 55.221990 30.421997                                                 
H 46.710438 30.446245 29.571083                                                 
H 54.675122 35.236315 29.650689                                                 
H 27.230053 41.365841 30.397717                                                 
H 27.351085 50.611450 30.145604                                                 
H 58.300195 64.424511 29.512355                                                 
H 50.301233 68.898103 29.661994                                                 
H 65.045056 43.996710 29.118982                                                 
H 62.735347 39.851985 29.621092                                                 
H 54.290583 66.628486 29.726061                                                 
H 64.786308 58.075401 28.747181                                                 
H 29.383650 64.067837 30.698765                                                 
H 27.094159 59.917955 30.600830                                                 
H 41.496914 71.195997 29.622126                                                 
H 62.362150 62.154523 29.017202                                                 
H 46.245159 71.233511 29.601536                                                 
C 44.239097 39.029963 37.251822                                                 
C 36.032168 43.665148 37.413191                                                 
C 40.164309 41.384327 37.254241                                                 
C 41.540841 39.044512 37.274746                                                 
C 49.677197 39.035158 37.066900                                                 
C 37.441341 41.360574 37.299603                                                 
C 48.309132 41.404478 37.099303                                                 
C 53.754314 41.439909 37.146240                                                 
C 45.597223 41.392033 37.201469                                                 
C 52.386009 43.782134 37.096339                                                 
C 36.046340 48.348509 37.698118                                                 
C 37.389214 46.033216 37.475764                                                 
C 45.597103 36.679615 37.231142                                                 
C 35.968020 53.037133 37.498684                                                 
C 33.286614 48.329932 37.581650                                                 
C 53.698049 46.143010 37.027282                                                 
C 52.410209 39.076144 37.093095                                                 
C 33.219042 53.053826 37.625175                                                 
C 56.419564 46.160597 36.975256                                                 
C 33.307076 43.630044 37.467267                                                 
C 49.655905 43.768450 37.112551                                                 
C 37.273881 55.419281 37.558814                                                 
C 48.320636 36.685861 37.190247                                                 
C 41.510469 43.744378 37.208574                                                 
C 37.385792 50.701122 37.731782                                                 
C 35.887549 57.770812 37.638676                                                 
C 56.470362 41.444107 37.172892                                                 
C 56.359156 50.878553 36.935201                                                 
C 53.650585 50.864000 37.066601                                                 
C 53.610644 55.584343 37.114771                                                 
C 31.883248 50.678986 37.679557                                                 
C 45.395459 60.209627 37.236293                                                 
C 41.322583 57.825976 37.395899                                                 
C 57.796425 43.815255 37.022890                                                 
C 31.937815 45.972112 37.463804                                                 
C 52.223610 57.909673 37.169618                                                 
C 44.231087 43.747262 37.263435                                                 
C 48.118652 60.228332 37.181867                                                 
C 40.129560 46.078475 37.317008                                                 
C 39.940461 60.156873 37.506907                                                 
C 49.504356 57.888246 37.145210                                                 
C 52.314435 48.500695 37.039130                                                 
C 57.743017 48.530945 36.875024                                                 
C 39.995714 55.457487 37.559184                                                 
C 56.334181 55.603448 37.015108                                                 
C 52.261586 53.202059 37.197492                                                 
C 44.049858 57.848547 37.262946                                                 
C 40.192934 36.674477 37.177708                                                 
C 31.823482 55.407342 37.681201                                                 
C 44.007142 62.549595 37.344732                                                 
C 36.088982 38.983447 37.172003                                                 
C 33.165905 57.778185 37.646403                                                 
C 37.245603 60.106786 37.684466                                                 
C 57.695473 53.248836 36.918831                                                 
C 41.281971 62.504410 37.436102                                                 
C 48.283281 46.123039 37.287355                                                 
C 40.098954 50.742323 37.756216                                                 
C 48.145716 55.518327 37.235423                                                 
C 44.223534 34.285017 37.285965                                                 
C 53.784036 36.704857 37.271372                                                 
C 53.587664 60.290007 37.205024                                                 
C 49.602107 48.496471 37.308376                                                 
C 49.461099 62.607876 37.289371                                                 
C 41.403908 53.112536 37.670630                                                 
C 45.435534 55.504266 37.364620                                                 
C 49.530310 53.181583 37.329633                                                 
C 45.560535 46.108377 37.414439                                                 
C 41.477120 48.412275 37.607608                                                 
C 31.929548 41.224008 37.487352                                                 
C 37.474703 36.657806 37.034134                                                 
C 49.682996 34.261815 37.302850                                                 
C 41.530614 34.341728 37.153362                                                 
C 57.690998 57.964946 37.082002                                                 
C 57.895807 39.062296 37.218972                                                 
C 33.389081 38.944756 37.246007                                                 
C 45.342508 64.931910 37.423139                                                 
C 44.117016 53.137686 37.613588                                                 
C 48.207642 50.821696 37.490215                                                 
C 29.113508 50.660407 37.897199                                                 
C 44.183269 48.431545 37.643980                                                 
C 60.453587 48.561538 36.795076                                                 
C 52.196886 62.627410 37.303134                                                 
C 45.505002 50.794148 37.661728                                                 
C 60.539060 43.817317 36.996970                                                 
C 29.140615 45.897094 37.617809                                                 
C 56.297322 60.294928 37.232594                                                 
C 56.507762 36.723152 37.268253                                                 
C 29.017507 55.419472 37.706342                                                 
C 48.091880 64.944482 37.468290                                                 
C 60.401163 53.279926 36.828245                                                 
C 52.409395 34.355625 37.511055                                                 
C 35.860087 62.453181 37.689947                                                 
C 31.745711 60.135982 37.567877                                                 
C 39.911560 64.857588 37.422675                                                 
C 45.599186 31.964263 37.182488                                                 
C 27.743074 53.014817 37.963140                                                 
C 61.863569 46.212347 36.733760                                                 
C 27.839785 48.270268 38.000700                                                 
C 61.762817 50.930853 36.611318                                                 
C 48.300206 31.981086 37.199830                                                 
C 29.216449 41.212775 37.342316                                                 
C 33.143581 62.473493 37.627130                                                 
C 60.556988 39.121871 37.015672                                                 
C 37.207154 64.786634 37.382929                                                 
C 60.436460 58.007078 36.959760                                                 
H 36.441979 34.831161 37.254197                                                 
H 40.460314 32.540421 37.167106                                                 
C 61.872371 41.463343 36.915490                                                 
C 43.952613 67.301575 37.516200                                                 
H 32.358457 37.120195 37.321638                                                 
C 61.735609 55.646831 36.593114                                                 
C 27.848793 43.547303 37.478777                                                 
C 41.226923 67.227434 37.386429                                                 
H 57.539632 34.924130 37.004203                                                 
C 27.716237 57.764634 37.659900                                                 
C 29.054793 60.096219 37.735459                                                 
H 53.467988 32.549954 37.585484                                                 
C 53.559545 65.005950 37.556974                                                 
H 44.555926 30.163890 37.224932                                                 
H 25.657800 52.962203 38.067036                                                 
C 57.695214 62.689342 37.448386                                                 
C 49.431421 67.385761 37.565882                                                 
H 63.859120 46.269051 37.370472                                                 
H 28.199073 39.392373 37.079513                                                 
H 25.794129 48.236455 38.415932                                                 
H 63.858183 50.932591 36.833778                                                 
H 49.310781 30.160258 37.210744                                                 
H 61.607557 37.326663 36.952223                                                 
H 32.145911 64.246844 37.112004                                                 
H 36.147690 66.610081 37.375962                                                 
H 63.960234 41.480146 36.958561                                                 
H 63.832821 55.647530 36.492263                                                 
H 25.761929 43.572467 37.454909                                                 
H 25.637187 57.756687 37.577077                                                 
C 61.734928 60.367346 36.915354                                                 
H 40.160769 68.987592 37.778709                                                 
C 45.313269 69.646613 37.454068                                                 
H 28.020308 61.895986 37.543993                                                 
C 52.189826 67.363206 37.505699                                                 
C 56.251854 64.965146 37.817780                                                 
C 60.358998 62.687219 37.223414                                                 
C 48.010544 69.663814 37.568209                                                 
H 63.818131 60.383715 36.872047                                                 
H 44.252048 71.432214 37.567194                                                 
H 53.234350 69.154755 37.788020                                                 
H 57.261035 66.761650 38.145207                                                 
H 61.377845 64.500209 37.310314                                                 
H 49.021252 71.484075 37.619251                                                 
H 28.438673 38.071231 44.086272                                                 
H 40.191486 30.026381 44.391484                                                 
H 32.357432 35.363596 43.564770                                                 
H 36.255871 32.672084 43.706506                                                 
H 44.915349 29.719845 44.634324                                                 
H 26.360983 42.391829 44.220822                                                 
C 41.355911 31.752889 44.379444                                                 
C 29.618484 39.783703 44.140642                                                 
H 61.908536 37.813398 43.567092                                                 
C 33.514106 37.071281 43.883718                                                 
C 37.420422 34.384702 43.957299                                                 
C 43.991054 31.576891 44.478263                                                 
H 49.113870 31.708735 44.039365                                                 
H 64.570291 41.799487 43.452625                                                 
C 28.430030 42.227068 44.258642                                                 
H 65.617291 55.939034 43.763905                                                 
H 26.794403 47.141910 44.176994                                                 
H 27.831897 61.056449 44.803362                                                 
H 53.342620 33.729420 43.863639                                                 
H 57.619530 35.776830 44.124375                                                 
H 30.488909 65.032226 44.689782                                                 
H 27.206645 51.768310 44.733774                                                 
H 65.285273 51.215579 43.497617                                                 
H 43.264855 71.241919 44.471218                                                 
H 63.546751 60.219218 44.098410                                                 
H 27.526649 56.335494 44.894044                                                 
H 64.899103 46.537700 43.284535                                                 
C 32.273858 39.506428 44.073013                                                 
C 40.145596 34.128773 44.191963                                                 
H 48.066901 70.917386 44.634443                                                 
C 36.219706 36.814005 43.985309                                                 
H 39.000645 69.162918 44.349646                                                 
C 60.994968 39.678153 43.667853                                                 
C 62.498110 41.937682 43.581047                                                 
H 34.772498 67.147013 44.585537                                                 
C 48.218238 33.597594 44.185758                                                 
C 63.539031 56.082102 43.823469                                                 
C 28.861581 46.941203 44.437622                                                 
H 59.649025 62.882305 44.450374                                                 
C 29.910529 60.924652 44.801832                                                 
C 45.521512 33.751399 44.373180                                                 
H 51.980578 68.182200 44.979383                                                 
H 55.811064 65.468345 44.748843                                                 
C 29.945430 44.466206 44.247838                                                 
C 31.414316 63.165431 44.639063                                                 
C 52.458093 35.636198 44.004287                                                 
C 62.378578 58.490194 44.026656                                                 
C 56.721935 37.644247 43.810599                                                 
C 44.188238 69.377439 44.449384                                                 
C 29.296761 51.585888 44.776176                                                 
C 63.201166 51.367215 43.565158                                                 
C 29.610670 56.216622 44.767842                                                 
C 62.823723 46.673074 43.417742                                                 
C 46.896429 69.200225 44.575514                                                 
C 49.740613 35.801780 43.972740                                                 
C 58.299606 39.837349 43.705575                                                 
C 39.923748 67.297109 44.286562                                                 
C 54.027832 37.860033 43.684393                                                 
C 30.408142 49.148091 44.554512                                                 
C 61.380671 44.372637 43.551280                                                 
C 35.676724 65.261934 44.453822                                                 
C 41.674542 36.423225 44.191469                                                 
C 62.055530 53.841715 43.826211                                                 
C 33.872862 41.776140 44.147104                                                 
C 31.060046 58.495995 44.626985                                                 
C 45.436068 50.332340 43.776257                                                 
C 30.780346 53.808702 44.924689                                                 
C 37.767667 39.074930 44.091750                                                 
C 61.707454 49.115567 43.529215                                                 
C 46.968295 52.580246 43.903961                                                 
C 58.491634 61.139813 44.362802                                                 
C 42.731383 50.541130 43.825784                                                 
C 46.593288 47.878637 43.776499                                                 
C 44.364759 36.223415 44.199575                                                 
C 34.100271 63.018076 44.454455                                                 
C 50.775054 66.473579 44.842242                                                 
C 42.647126 67.188776 44.313992                                                 
C 32.694801 44.242139 44.189322                                                 
C 54.626365 63.751900 44.619458                                                 
C 59.717762 58.714828 44.207457                                                 
C 45.802445 55.032779 44.107535                                                 
C 49.666703 52.367385 43.979808                                                 
C 41.200176 48.292337 43.859099                                                 
C 45.066747 45.624214 43.890270                                                 
C 38.377208 65.100186 44.291783                                                 
C 41.580066 52.989156 44.089790                                                 
C 49.300059 47.668522 43.888758                                                 
C 48.092846 66.769886 44.511182                                                 
C 40.489377 38.874676 44.120326                                                 
C 36.563418 41.542380 44.183005                                                 
C 42.360372 45.827389 43.952992                                                 
C 43.099580 55.227706 44.281331                                                 
C 50.838650 49.921658 43.933717                                                 
C 48.579992 38.273187 44.005132                                                 
C 55.812630 61.357976 44.527680                                                 
C 33.131682 48.921247 44.391511                                                 
C 52.831605 40.322451 43.733341                                                 
C 57.081677 42.312045 43.697820                                                 
C 51.950334 64.027352 44.408495                                                 
C 58.607978 44.589616 43.697097                                                 
C 45.876605 38.464685 44.048717                                                 
C 46.232535 43.165856 44.063461                                                 
C 38.502038 48.489512 43.996772                                                 
C 34.254504 46.470756 44.181869                                                 
C 33.483063 53.597959 44.661734                                                 
C 50.480588 45.205895 43.937015                                                 
C 38.878549 53.197908 44.277557                                                 
C 51.208483 54.608744 44.227750                                                 
C 40.827882 43.586432 44.188308                                                 
C 50.128608 40.514192 43.912624                                                 
C 47.339878 57.281989 44.229839                                                 
C 33.808652 58.300648 44.529071                                                 
C 59.325277 54.018738 43.968168                                                 
C 42.015432 41.108141 44.127775                                                 
C 38.119930 43.792568 44.247954                                                 
C 48.947493 42.960063 43.986041                                                 
C 44.694393 40.908302 44.038109                                                 
C 58.963765 49.322490 43.728246                                                 
C 37.356795 50.943893 44.222782                                                 
C 35.329845 60.547913 44.403593                                                 
C 36.960340 46.254896 44.104292                                                 
C 34.652250 51.151864 44.436088                                                 
C 54.376938 42.546104 43.745839                                                 
C 53.556179 49.690362 44.004186                                                 
C 50.029713 57.061130 44.337898                                                 
C 43.828375 64.664436 44.283463                                                 
C 41.925302 57.715167 44.338153                                                 
C 58.154981 56.448274 44.178190                                                 
C 34.981594 55.865022 44.563394                                                 
C 53.204418 44.984971 43.892235                                                 
C 57.447695 47.035873 43.783284                                                 
C 39.555292 62.607359 44.237911                                                 
C 37.701504 55.671440 44.432166                                                 
C 57.796147 51.764824 43.938285                                                 
C 54.714914 47.249711 43.910975                                                 
C 46.565270 64.482754 44.335819                                                 
C 53.917662 54.399722 44.202419                                                 
C 55.092374 51.956465 44.116796                                                 
C 39.207198 57.914406 44.338512                                                 
C 46.170634 59.749689 44.320739                                                 
C 38.025050 60.360224 44.303315                                                 
C 54.271044 59.092804 44.361122                                                 
C 43.462478 59.937755 44.258480                                                 
C 50.407039 61.752149 44.363591                                                 
C 42.292963 62.428045 44.245264                                                 
C 51.581254 59.321860 44.353695                                                 
C 55.463094 56.659516 44.250412                                                 
C 47.708667 61.984841 44.447725                                                 
H 43.915550 29.841601 50.400033                                                 
H 28.071580 39.489715 51.894784                                                 
H 48.642805 29.715921 50.644797                                                 
H 60.948414 36.514291 51.269537                                                 
H 63.380544 40.583445 51.433060                                                 
H 25.761897 43.630020 52.049972                                                 
H 28.492045 61.686569 52.270349                                                 
H 26.019008 57.628440 52.261218                                                 
H 36.142592 34.853931 51.905346                                                 
H 40.027850 32.317698 51.220718                                                 
H 32.115870 37.140318 51.841243                                                 
H 63.552391 49.872870 51.251156                                                 
H 36.646372 66.107003 52.089092                                                 
H 63.762381 59.109459 51.947667                                                 
H 44.767326 70.589610 52.507292                                                 
H 63.486751 45.262668 51.181273                                                 
H 32.609366 63.889556 52.223286                                                 
H 52.712579 32.005385 51.387831                                                 
H 56.840723 34.235908 51.149403                                                 
H 63.641502 54.468178 51.584590                                                 
H 61.480541 63.258508 52.261231                                                 
H 40.670706 68.372516 52.054052                                                 
H 49.507256 70.524003 52.450445                                                 
H 25.932268 52.969648 52.103661                                                 
H 25.892981 48.311843 52.340927                                                 
C 45.024867 31.605167 50.456454                                                 
C 47.631492 31.540024 50.593279                                                 
C 29.108522 41.280830 51.666915                                                 
C 59.963903 38.336284 51.061689                                                 
C 27.818497 43.582689 51.729387                                                 
C 61.315733 40.605461 51.173488                                                 
C 28.075594 57.610221 51.941675                                                 
C 29.452140 59.865245 51.957923                                                 
H 57.509023 65.691004 52.181003                                                 
H 53.537003 68.129990 52.168058                                                 
C 41.072431 34.081354 50.760762                                                 
C 37.046773 36.431067 50.862709                                                 
C 33.121624 38.884659 51.266039                                                 
C 61.702464 59.205168 51.656815                                                 
C 45.786219 68.820533 52.105300                                                 
C 60.436618 61.512952 51.823777                                                 
C 51.732970 33.811821 51.028321                                                 
C 48.429176 68.786599 52.065573                                                 
C 55.848356 36.049513 50.903294                                                 
C 61.424046 45.294225 50.878915                                                 
C 61.537173 49.934011 50.686851                                                 
C 33.540506 62.132922 51.570157                                                 
C 37.598540 64.367321 51.421358                                                 
C 27.894615 48.275766 51.760487                                                 
C 27.973122 52.935186 51.677673                                                 
C 61.627984 54.558340 51.023405                                                 
C 41.674041 66.595939 51.630894                                                 
C 43.719405 33.944067 50.460031                                                 
C 49.054487 33.825808 50.750746                                                 
C 31.760819 41.196746 51.257641                                                 
C 57.276430 38.321561 50.850287                                                 
C 29.138282 45.922343 51.481389                                                 
C 60.074308 42.976226 50.882660                                                 
C 29.305211 55.238456 51.550454                                                 
C 39.761721 36.383029 50.675700                                                 
C 32.105852 59.869774 51.514369                                                 
C 35.748889 38.812033 50.905280                                                 
C 53.165837 36.064888 50.841713                                                 
C 56.445955 63.951737 51.754984                                                 
C 52.467043 66.382237 51.805993                                                 
C 29.227504 50.602166 51.516678                                                 
C 45.368933 50.295481 49.470631                                                 
C 60.375495 56.929066 51.120223                                                 
C 60.167221 47.626947 50.728515                                                 
C 44.357155 66.592402 51.617327                                                 
C 36.191930 62.092705 51.308005                                                 
C 60.261970 52.297583 50.738291                                                 
C 40.280692 64.353544 51.373804                                                 
C 57.755232 61.655850 51.506037                                                 
C 49.793549 66.487861 51.689538                                                 
C 44.064787 52.666085 49.582813                                                 
C 48.080408 50.238504 49.503624                                                 
C 43.963331 47.977602 49.457332                                                 
C 53.800327 64.060116 51.594989                                                 
C 45.471585 54.977843 49.710985                                                 
C 49.482610 52.554562 49.627839                                                 
C 45.102884 36.252484 50.205577                                                 
C 41.352943 52.714207 49.679486                                                 
C 49.383639 47.866845 49.524258                                                 
C 47.778610 36.191993 50.320613                                                 
C 33.121765 43.516437 50.791076                                                 
C 41.255692 48.031979 49.549465                                                 
C 45.274322 45.605297 49.487117                                                 
C 31.816846 45.866945 50.904249                                                 
C 55.976308 40.714370 50.506591                                                 
C 57.369179 43.020738 50.483644                                                 
C 31.992428 55.206404 51.037336                                                 
C 33.381967 57.510077 50.995278                                                 
C 48.181346 54.921249 49.736058                                                 
C 39.949905 50.402003 49.667170                                                 
C 47.980785 45.548272 49.523416                                                 
C 51.858392 38.455216 50.398070                                                 
C 41.120580 38.685044 50.154327                                                 
C 37.112623 41.108673 50.333122                                                 
C 57.675969 57.017662 50.728073                                                 
C 31.902488 50.545943 50.858087                                                 
C 45.680129 64.258279 51.082544                                                 
C 57.458299 47.692528 50.278818                                                 
C 56.375430 59.363332 50.922456                                                 
C 37.473200 59.750655 50.696870                                                 
C 48.374336 64.202425 51.140502                                                 
C 57.561095 52.372020 50.294063                                                 
C 41.580753 62.005056 50.775897                                                 
C 40.051705 55.078412 49.906959                                                 
C 44.171104 57.341933 49.930678                                                 
C 52.189538 52.494878 49.752783                                                 
C 52.087658 47.806023 49.664034                                                 
C 39.857650 45.715466 49.686661                                                 
C 49.181070 38.504829 50.134768                                                 
C 43.878673 43.289686 49.607458                                                 
C 43.796829 38.616956 49.991484                                                 
C 35.798610 43.457831 50.297102                                                 
C 53.267747 40.766393 50.229683                                                 
C 33.185282 48.190982 50.561260                                                 
C 33.271492 52.849787 50.625358                                                 
C 39.791511 41.040032 50.010965                                                 
C 41.460021 57.384242 50.033556                                                 
C 56.074351 45.383127 50.150428                                                 
C 53.487200 50.124499 49.771387                                                 
C 41.172381 43.346684 49.717418                                                 
C 36.068504 57.471735 50.547722                                                 
C 52.385674 61.762275 50.996911                                                 
C 37.245298 50.449526 49.922693                                                 
C 56.181873 50.064136 50.055847                                                 
C 49.285099 43.179200 49.684102                                                 
C 40.162749 59.726628 50.440917                                                 
C 49.586581 57.226787 49.999791                                                 
C 56.281780 54.726674 50.273043                                                 
C 44.277640 61.976271 50.620493                                                 
C 45.190204 40.926267 49.748799                                                 
C 37.161765 45.767433 49.955998                                                 
C 37.349592 55.120326 50.154936                                                 
C 53.384595 45.435693 49.834827                                                 
C 47.886370 40.864250 49.798203                                                 
C 35.851699 48.136984 50.082175                                                 
C 51.982095 43.124203 49.858996                                                 
C 35.950071 52.810547 50.180618                                                 
C 45.579096 59.640058 50.199740                                                 
C 53.681931 59.438661 50.627405                                                 
C 49.686593 61.848874 50.754585                                                 
C 53.588560 54.802208 50.004387                                                 
C 48.286142 59.581299 50.250788                                                 
C 52.289645 57.161391 50.152655                                                 
Li 59.771196 41.421605 40.318100                                                
Li 31.851401 60.681709 41.342996                                                
Li 30.301714 42.242130 40.929381                                                
Li 46.169097 67.935150 40.950179                                                
Li 59.847434 60.177605 40.503887                                                
Li 54.378386 62.122475 40.817491                                                
Li 41.205950 64.971937 41.040815                                                
Li 39.400001 36.069539 40.825078                                                
Li 29.990676 53.848667 41.199546                                                
Li 30.937217 47.874048 40.907726                                                
Li 51.020977 37.958266 40.654933                                                
Li 62.719353 53.514256 40.037544                                                
Li 62.733532 52.524298 47.552868                                                
Li 59.702348 46.909773 40.306184                                                
Li 35.072734 39.500028 40.864407                                                
Li 46.719656 34.012653 40.511143                                                
Li 55.207069 35.293861 40.736146                                                
Li 34.734090 64.801682 40.698966                                                
Li 56.186961 64.139498 33.811059                                                
Li 60.448235 46.939597 46.917641                                                
Li 51.348388 67.039638 33.717385                                                
Li 51.825607 64.697676 48.187582                                                
Li 34.757932 64.289730 48.279074                                                
Li 41.057719 64.891301 47.584059                                                
Li 59.699534 59.813862 48.064785                                                
Li 46.757111 67.625128 48.292886                                                
Li 28.236079 49.195212 47.895003                                                
Li 59.821946 40.786886 47.376071                                                
Li 34.075593 36.923498 47.836636                                                
Li 27.991297 47.998995 34.029653                                                
Li 44.230412 68.099654 33.649335                                                
Li 39.910115 36.087887 33.450057                                                
Li 61.018817 58.647863 33.067207                                                
Li 29.862836 43.041194 47.997425                                                
Li 51.946273 34.671599 33.569538                                                
Li 29.864770 52.925626 34.513049                                                
Li 62.339396 48.472157 33.293494                                                
Li 54.792532 37.958174 47.424853                                                
Li 30.018687 58.092944 48.361702                                                
Li 35.339901 62.764482 33.969539                                                
Li 44.569607 33.578929 33.435642                                                
Li 34.759300 37.282979 33.811146                                                
Li 55.692435 38.643098 33.905930                                                
Li 55.380742 53.246607 40.355428                                                
Li 61.093505 53.439749 33.058710                                                
Li 38.431065 33.916337 47.823582                                                
Li 51.990048 47.341393 40.723964                                                
Li 39.064440 66.520378 33.957997                                                
Li 50.798249 33.783930 47.205598                                                
Li 50.219763 55.863050 40.561677                                                
Li 61.956861 43.439028 33.373201                                                
Li 47.105447 43.601283 40.342792                                                
Li 51.321083 66.463337 41.097115                                                
Li 46.648696 62.122188 40.657075                                                
Li 36.182037 53.554150 41.237052                                                
Li 42.936376 56.308329 40.626339                                                
Li 30.091900 58.430030 34.325267                                                
Li 39.536051 44.171055 40.649475                                                
Li 30.837298 41.463483 33.892550                                                
Li 43.243080 49.492080 40.743480                                                
%ENDBLOCK POSITIONS_ABS                                                         

--------------------------------------------------------------------------------
-------------------------------- END INPUT FILE --------------------------------
--------------------------------------------------------------------------------


 
<<<<<<<<<<<<<<<<<<<<<<<<<<<<<<<<< Full system >>>>>>>>>>>>>>>>>>>>>>>>>>>>>>>>>>
<<<<<<<<<<<<<<<<<<<<<<<<<<< PAW Dataset information >>>>>>>>>>>>>>>>>>>>>>>>>>>
File: ~/pp/paw/c_pbe_abinit.paw; rc = 1.25 bohr; shape type =  3; rshape = 1.25 bohr;
  Atomic number:  6;  ionic charge:  4.000000
    Partial Wave 1: l = 0
    Partial Wave 2: l = 0
    Partial Wave 3: l = 1
    Partial Wave 4: l = 1
  Core charge supplied for Nonlinear Core Corrections
File: ~/pp/paw/h_pbe_abinit.paw; rc = 0.90 bohr; shape type =  3; rshape = 0.90 bohr;
  Atomic number:  1;  ionic charge:  1.000000
    Partial Wave 1: l = 0
    Partial Wave 2: l = 0
File: ~/pp/paw/li_pbe_abinit.paw; rc = 1.42 bohr; shape type =  3; rshape = 1.42 bohr;
  Atomic number:  3;  ionic charge:  3.000000
    Partial Wave 1: l = 0
    Partial Wave 2: l = 0
    Partial Wave 3: l = 0
    Partial Wave 4: l = 1
    Partial Wave 5: l = 1
<<<<<<<<<<<<<<<<<<<<<<<<<<<<<<<<<<<<<<< >>>>>>>>>>>>>>>>>>>>>>>>>>>>>>>>>>>>>>>

-------------------------- Atom counting information ---------------------------
Symbol    Natoms    Nngwfs    Nprojs
  C        484      1936      3872
  H        108       108       216
  Li        60       300       540
.......   ......    ......    ......
Totals:    652      2344      4628
--------------------------------------------------------------------------------

=============================== PSINC grid sizes ===============================
                      Simulation cell:  189 x 189 x 189
                              FFT-box:  117 x 117 x 117
                                  PPD:    7 x   7 x   1
Grid space d1=  0.499927596032a0 (KE cutoff=  30.39413Eh = 827.06648eV)
Grid space d2=  0.499927596032a0 (KE cutoff=  30.39413Eh = 827.06648eV)
Grid space d3=  0.499927596032a0 (KE cutoff=  30.39413Eh = 827.06648eV)
================================================================================
  
WARNING in cell_grid_distribute:
Average of less than one 23-slab per proc, so workload cannot be
equally balanced between procs.

********************* Fourier parallelisation information **********************
       Coarse grid (whole simulation cell) dimensions:    189   189   189
          Real-space ('12') slabs/proc (min max mean):      1     2     1
         Recip-space ('23') slabs/proc (min max mean):      0     1     0
********************************************************************************

********************* Fourier parallelisation information **********************
       Double grid (whole simulation cell) dimensions:    378   378   378
          Real-space ('12') slabs/proc (min max mean):      2     3     2
         Recip-space ('23') slabs/proc (min max mean):      1     2     1
********************************************************************************

Atom SCF Calculation for C  : Z (AE atom) =   6 : Z (PS atom) =   4
Config String: 2s2 2p2
Orbitals (num,occ):  2     2.00 2.00
Orbitals   (num,l):  2        0    1
Real-space Grid (nr,dr,rmax): 1377    0.0065406977    9.0000000000
Spherical Bessel Basis (nsws,lmax,cutoff):   37    2  183.0099912382
Confining potential (l,width,scale):  0    3.0000000000  100.0000000000
Confining potential (l,width,scale):  1    3.0000000000  100.0000000000
  1         -5.4795186097   -1.3252230651    4.5135247139   -1.6370402178
  2         -5.4480873667   -1.4027986130    4.4305957006   -1.6109824140
  3         -5.4553175168   -1.4212842775    4.4102621601   -1.6059044058
  4         -5.4627851864   -1.4247099971    4.4065125496   -1.6052912254
  5         -5.4662317525   -1.4266823431    4.4043718731   -1.6049357348
  6         -5.4679531179   -1.4277361345    4.4032352159   -1.6047498153
  7         -5.4688370531   -1.4282876632    4.4026436340   -1.6046546171
  8         -5.4692962224   -1.4285743132    4.4023378281   -1.6046060967
  9         -5.4695360875   -1.4287229388    4.4021801230   -1.6045813828
 10         -5.4696617783   -1.4287999625    4.4020988354   -1.6045687883
 11         -5.4697277645   -1.4288398966    4.4020569195   -1.6045623641
 12         -5.4697624500   -1.4288606199    4.4020352864   -1.6045590836
 13         -5.4697806994   -1.4288713865    4.4020241086   -1.6045574064
 14         -5.4697903086   -1.4288769875    4.4020183254   -1.6045565478
 15         -5.4697953717   -1.4288799052    4.4020153292   -1.6045561077
 16         -5.4697980412   -1.4288814272    4.4020137746   -1.6045558818
 17         -5.4697994496   -1.4288822223    4.4020129668   -1.6045557657
 18         -5.4698001930   -1.4288826382    4.4020125465   -1.6045557059
 19         -5.4698005858   -1.4288828561    4.4020123274   -1.6045556751
 20         -5.4698007933   -1.4288829704    4.4020122131   -1.6045556592
 21         -5.4698009031   -1.4288830304    4.4020121533   -1.6045556509
 22         -5.4698009612   -1.4288830620    4.4020121220   -1.6045556467
Atom SCF converged after  22 iterations to a total energy of     -5.46980096

Atom SCF Calculation for H  : Z (AE atom) =   1 : Z (PS atom) =   1
Config String: 1s1
Orbitals (num,occ):  1     1.00
Orbitals   (num,l):  1        0
Real-space Grid (nr,dr,rmax): 1377    0.0065406977    9.0000000000
Spherical Bessel Basis (nsws,lmax,cutoff):   37    1  183.0099912382
Confining potential (l,width,scale):  0    3.0000000000  100.0000000000
  1         -0.3687944832   -0.2607687933    0.2820952946   -0.2613406499
  2         -0.4328656062   -0.2590521405    0.2895573663   -0.2701762133
  3         -0.4633856573   -0.2560091938    0.2934204754   -0.2757429988
  4         -0.4750266404   -0.2549676794    0.2946557510   -0.2779015032
  5         -0.4793045155   -0.2546870695    0.2949704774   -0.2786577123
  6         -0.4808919118   -0.2546234645    0.2950332622   -0.2789201171
  7         -0.4814942533   -0.2546130669    0.2950388368   -0.2790132353
  8         -0.4817280090   -0.2546133926    0.2950352123   -0.2790473458
  9         -0.4818204053   -0.2546148712    0.2950319888   -0.2790602287
 10         -0.4818574273   -0.2546158825    0.2950301416   -0.2790652181
 11         -0.4818724050   -0.2546164247    0.2950292178   -0.2790671871
 12         -0.4818785049   -0.2546166894    0.2950287833   -0.2790679748
 13         -0.4818810009   -0.2546168128    0.2950285855   -0.2790682928
 14         -0.4818820255   -0.2546168689    0.2950284970   -0.2790684221
 15         -0.4818824471   -0.2546168940    0.2950284580   -0.2790684748
 16         -0.4818826210   -0.2546169051    0.2950284408   -0.2790684964
 17         -0.4818826928   -0.2546169100    0.2950284333   -0.2790685053
Atom SCF converged after  17 iterations to a total energy of     -0.48188269

Atom SCF Calculation for Li : Z (AE atom) =   3 : Z (PS atom) =   3
Config String: 1s2 2s1 2p0
Orbitals (num,occ):  3     2.00 1.00 0.00
Orbitals   (num,l):  3        0    0    1
Real-space Grid (nr,dr,rmax): 1377    0.0065406977    9.0000000000
Spherical Bessel Basis (nsws,lmax,cutoff):   37    2  183.0099912382
Confining potential (l,width,scale):  0    3.0000000000  100.0000000000
Confining potential (l,width,scale):  1    3.0000000000  100.0000000000
  1         -6.1314629607   -4.7499359229    2.5388576516   -1.0480231927
  2         -7.0450508208   -4.1702030791    2.9795337774   -1.2623862962
  3         -7.3518474013   -3.9564527259    3.2037296734   -1.3880788964
  4         -7.4613386962   -3.8947565558    3.2914990517   -1.4402825036
  5         -7.5001516047   -3.8789668192    3.3221434609   -1.4602864917
  6         -7.5136113510   -3.8755528126    3.3322769691   -1.4678164580
  7         -7.5181182589   -3.8751724459    3.3354399675   -1.4706394447
  8         -7.5195538340   -3.8753832694    3.3363346353   -1.4716958846
  9         -7.5199777516   -3.8756112412    3.3365363545   -1.4720903919
 10         -7.5200869011   -3.8757624244    3.3365501247   -1.4722372325
 11         -7.5201065703   -3.8758489541    3.3365264569   -1.4722916218
 12         -7.5201049812   -3.8758952022    3.3365040630   -1.4723116262
 13         -7.5201006323   -3.8759190019    3.3364892955   -1.4723189110
 14         -7.5200980758   -3.8759285770    3.3364824548   -1.4723210036
 15         -7.5200963811   -3.8759342877    3.3364781194   -1.4723220111
 16         -7.5200953120   -3.8759376792    3.3364754203   -1.4723224913
 17         -7.5200946593   -3.8759396866    3.3364737619   -1.4723227171
 18         -7.5200942701   -3.8759408718    3.3364727530   -1.4723228213
 19         -7.5200940419   -3.8759415700    3.3364721439   -1.4723228682
 20         -7.5200939099   -3.8759419808    3.3364717784   -1.4723228886
 21         -7.5200938343   -3.8759422222    3.3364715600   -1.4723228969
Atom SCF converged after  21 iterations to a total energy of     -7.52009383

Determining parallel strategy ...
... using space-filling curve
... NGWF load balancing: max     17;  min     13;  average     15
... Projector load balancing: max     34;  min     25;  average     29
... done
Calculating Ewald energy ...
              Ewald: real-space energy =   38794.420526
        Ewald: reciprocal-space energy =   38920.761463
         Ewald: (sum_charge)**2 Energy =    3018.478756
         Ewald: (sum_charge**2) Energy =     261.539824
                          Ewald Energy =   74435.163409
Basis initialisation ...... NGWF spheres initialised
... Projector spheres initialised
... NGWF tight boxes initialised
... Projector tight boxes initialised
... Tight-boxes gathered
... NGWF basis size (local,global):     297361  47287200
... PAW projector initialisation
... done

============================= Charge Augmentation ==============================
                           Aug box size:   13 x  13 x  13
================================================================================

========================== Sparse matrix information ===========================
                        Overlap matrix filling:  37.29%
                        Density kernel filling: 100.00%
              NGWF-Proj overlap matrix filling:  10.32%
                    Aug Overlap matrix filling:  42.08%
                    Hamiltonian matrix filling:  42.08%
                  NGWF diagonal matrix filling:   0.17%
                             KS matrix filling: 100.00% 
                           KSKS matrix filling: 100.00% 
================================================================================

Sparse matrix initialisation ... done
NGWF initialisation ...... done
============ Calculation of NGWF S^-1 using Hotelling algorithm ================ 
         Iteration  |  Frobenius norm and Maximum abs value    (of I-S*S_n^-1)   
               1       0.48188053E+02     0.99772228E+00
               2       0.47971316E+02     0.99545405E+00
               3       0.47565370E+02     0.99094541E+00
               4       0.46847399E+02     0.98203522E+00
               5       0.45690281E+02     0.96461357E+00
               6       0.44037377E+02     0.93118019E+00
               7       0.41908829E+02     0.86898947E+00
               8       0.39310473E+02     0.80915411E+00
               9       0.36302105E+02     0.79347616E+00
              10       0.33165463E+02     0.77342077E+00
              11       0.30079606E+02     0.75037753E+00
              12       0.26602457E+02     0.73117040E+00
              13       0.22123226E+02     0.70298526E+00
              14       0.16511042E+02     0.66515382E+00
              15       0.10622768E+02     0.59995038E+00
              16       0.62216938E+01     0.49471744E+00
              17       0.38160981E+01     0.37290846E+00
              18       0.22703077E+01     0.28759589E+00
              19       0.11163489E+01     0.19789646E+00
              20       0.39804688E+00     0.10505112E+00
              21       0.92538157E-01     0.31184081E-01
              22       0.78714679E-02     0.27649329E-02
              23       0.61816069E-04     0.21738745E-04
              24       0.38212143E-08     0.13438024E-08
              25       0.76312085E-13     0.71054274E-14
================================================================================
Calculating core density ...
================================= Core Density =================================
               Core den box size:   21 x  21 x  21
================================================================================
 ... done
Up spin density kernel initialisation ...... done
Down spin density kernel initialisation ...... done

Writing density kernel to file "60/592nano.dkn" ... done

>>> Optimising kernel for current NGWFs:

--------------------------- Ensemble-DFT optimisation --------------------------
Running ScaLAPACK on  160 processor(s).

--------------------------------------------------------------------------------
  Iter                              Commutator    Free_energy(A=E-TS)     DeltaA
#    0                          0.001453186731   -3278.66627434089014  -3.28E+03

Step                       =       0.381966011250
Energy (E)                 =   -3278.608871984617
Entropy (-TS)              =      -0.057402356273
Free energy (A=E-TS)       =   -3278.666274340890
Est. 0K Energy 0.5*(E+A)   =   -3278.637573162753
Residual Non-orthogonality =       0.000000000000
Residual N_electrons       =       0.000000000000

Spin          Integrated_Ne            Fermi_level     Delta_Fermi_level
   1      1112.000000000000        -0.220007594164             -2.20E-01
   2      1112.000000000000        -0.220007594163             -2.20E-01

                           Spin 1           |                 Spin 2           |
     Orb |    H-eigenvalues     Occupancies |    H-eigenvalues     Occupancies |
       1 |    -1.9118161661    1.0000000000 |    -1.9118161661    1.0000000000 | 
                          ------                             ------
    1109 |    -0.2232608460    0.7363912769 |    -0.2232608460    0.7363912769 | 
    1110 |    -0.2217276950    0.6325483501 |    -0.2217276950    0.6325483501 | 
    1111 |    -0.2211317257    0.5878229184 |    -0.2211317257    0.5878229184 | 
    1112 |    -0.2204475069    0.5346726272 |    -0.2204475069    0.5346726272 | 
                 - Gap at zero temperature - |     - Gap at zero temperature -
    1113 |    -0.2200516834    0.5034805160 |    -0.2200516834    0.5034805160 | 
                  Finite temp. Fermi level   |      Finite temp. Fermi level  
    1114 |    -0.2191938624    0.4361120910 |    -0.2191938624    0.4361120910 | 
    1115 |    -0.2181420959    0.3568464798 |    -0.2181420959    0.3568464798 | 
    1116 |    -0.2174846009    0.3107322295 |    -0.2174846009    0.3107322295 | 
    1117 |    -0.2156782903    0.2030910416 |    -0.2156782903    0.2030910416 | 
    1118 |    -0.2135026103    0.1136375938 |    -0.2135026103    0.1136375938 | 
                          ------                             ------
    2344 |     0.5536355018    0.0000000000 |     0.5536355018    0.0000000000 | 

                            |  Abs_value |  Threshold | Converged
     Delta_Free_energy/atom |   5.03E+00 |   1.00E-06 |        No
[...]
 C    64 -- C   210       -0.04     -0.00      5.65077
 H   131 -- Li  632       -0.01      0.00      5.65138
 C   441 -- Li  646       -0.07      0.00      5.65164
 H   124 -- Li  637       -0.02      0.00      5.65409
 C   378 -- C   525       -0.04     -0.00      5.65413
 H   317 -- Li  594       -0.00      0.00      5.65547
 C   567 -- Li  612       -0.05     -0.00      5.65724
 C   165 -- Li  627       -0.05     -0.00      5.65957
 H   458 -- Li  617       -0.01     -0.00      5.66389
 C   290 -- Li  623       -0.04     -0.00      5.66512
 Li  595 -- Li  602       -0.23     -0.00      5.66770
=============================================================


============== Orbital energy and occupancy information for spin 1 =============

      Total number of orbitals:    2344
        Occupancy sum (kernel):    1112.000068054
   Occupancy sum (eigenvalues):    1112.000068054
                 HOMO-LUMO gap:       0.001043891 Eh
                 Mid-gap level:      -0.074383817 Eh

                        Orbital | Energy (Eh) | Occupancy
                            1    -1.848898041   1.0000000
                        .......   ...........   .........
                         1103    -0.085965725   0.9701667
                         1104    -0.084854697   0.9581183
                         1105    -0.082949323   0.9262119
                         1106    -0.081804879   0.8971671
                         1107    -0.078938457   0.7794281
                         1108    -0.077923017   0.7192738
                         1109    -0.077638897   0.7004939
                         1110    -0.076040694   0.5861947
                         1111    -0.075321363   0.5296137
                         1112    -0.074905763   0.4966793
                        ....... -- gap at 0K -- .........
                         1113    -0.073861872   0.4154474
                         1114    -0.073526820   0.3902903
                         1115    -0.072951100   0.3475220
                         1116    -0.071450472   0.2496259
                         1117    -0.070581541   0.2015211
                         1118    -0.069589192   0.1556514
                         1119    -0.069253039   0.1422362
                         1120    -0.068669254   0.1213190
                         1121    -0.068147012   0.1046752
                         1122    -0.066921884   0.0738101
                        .......   ...........   .........
                         2344     0.767069751   0.0000000

================================================================================

============== Orbital energy and occupancy information for spin 2 =============

      Total number of orbitals:    2344
        Occupancy sum (kernel):    1111.999931945
   Occupancy sum (eigenvalues):    1111.999931945
                 HOMO-LUMO gap:       0.001043824 Eh
                 Mid-gap level:      -0.074383738 Eh

                        Orbital | Energy (Eh) | Occupancy
                            1    -1.848898033   1.0000000
                        .......   ...........   .........
                         1103    -0.085965682   0.9701656
                         1104    -0.084854654   0.9581168
                         1105    -0.082949296   0.9262101
                         1106    -0.081804820   0.8971621
                         1107    -0.078938419   0.7794226
                         1108    -0.077922951   0.7192629
                         1109    -0.077638865   0.7004881
                         1110    -0.076040665   0.5861891
                         1111    -0.075321283   0.5295979
                         1112    -0.074905650   0.4966576
                        ....... -- gap at 0K -- .........
                         1113    -0.073861826   0.4154383
                         1114    -0.073526770   0.3902805
                         1115    -0.072951068   0.3475162
                         1116    -0.071450455   0.2496241
                         1117    -0.070581504   0.2015161
                         1118    -0.069589147   0.1556461
                         1119    -0.069252989   0.1422310
                         1120    -0.068669207   0.1213145
                         1121    -0.068146972   0.1046717
                         1122    -0.066921855   0.0738082
                        .......   ...........   .........
                         2344     0.767069752   0.0000000

================================================================================

===================== Writing canonical molecular orbitals =====================
    Spin 1
| Orbital  Energy (eV)  Norm     |
| HOMO     -2.03828952  1.000000 | Writing "60/592nano_HOMO_UP.cube" ... done
Writing "60/592nano_HOMO_UP.dx" ... done
| LUMO     -2.00988381  1.000000 | Writing "60/592nano_LUMO_UP.cube" ... done
Writing "60/592nano_LUMO_UP.dx" ... done
================================================================================

===================== Writing canonical molecular orbitals =====================
    Spin 2
| Orbital  Energy (eV)  Norm     |
| HOMO     -2.03828645  1.000000 | Writing "60/592nano_HOMO_DN.cube" ... done
Writing "60/592nano_HOMO_DN.dx" ... done
| LUMO     -2.00988255  1.000000 | Writing "60/592nano_LUMO_DN.cube" ... done
Writing "60/592nano_LUMO_DN.dx" ... done
================================================================================

================== Local Density of States (LDOS) calculation ==================
Writing "60/592nano_UP_LDOS.txt" ...  done
================================================================================

================== Local Density of States (LDOS) calculation ==================
Writing "60/592nano_DN_LDOS.txt" ...  done
================================================================================
 
=============== Density of States (DOS) calculation for UP spin ================
Writing "60/592nano_UP_DOS.txt" ...  done
================================================================================
 
============== Density of States (DOS) calculation for DOWN spin ===============
Writing "60/592nano_DN_DOS.txt" ...  done
================================================================================
 
Writing bands to file "60/592nano.val_bands" ... done
 
================ Projected Density of States (pDOS) calculation ================
 
Constructing AM resolved functions  ...... done
Writing NGWF plot files in formats: CUBE DX ...  done
 
Performing overlap integrals ...  done
 
Computing pDOS weights ...  done
 
All bands spilling parameter =   2.85 %
Occupancy-weighted spilling parameter =   0.73 %
 
 => Outputting data for OptaDOS <=
 
Writing pDOS weights to file "60/592nano.val_pdos_bin" ... done
 
Writing band gradients to file "60/592nano.val_dome_bin" ... done
 
Writing Castep output cell file to "60/592nano-out.cell" ... done
 
 => Computing Gaussian smeared pDOS for UP spin<= 
Writing "60/592nano_UP_PDOS.txt" ...  done
 
 => Computing Gaussian smeared pDOS for DOWN spin<= 
Writing "60/592nano_DN_PDOS.txt" ...  done
 
 => Computing Occupancy-weighted Gaussian smeared pDOS for UP spin<= 
Writing "60/592nano_occ_UP_PDOS.txt" ...  done
  => Band centres for UP spin channel: 
 S band centre of group 1:  -20.359641 eV
 P band centre of group 1:   -8.301253 eV
  Band centres for UP spin channel done. <= 
  => Integrated number of electrons in each AM band for UP spin channel: 
 S num electrons of group 1:  326.101504
 P num electrons of group 1:  777.776165
  Integrated number of electrons for UP spin channel done. <= 
 
 => Computing Occupancy-weighted Gaussian smeared pDOS for DOWN spin<= 
Writing "60/592nano_occ_DN_PDOS.txt" ...  done
  => Band centres for DOWN spin channel: 
 S band centre of group 1:  -20.359640 eV
 P band centre of group 1:   -8.301254 eV
  Band centres for DOWN spin channel done. <=
  => Integrated number of electrons in each AM band for DOWN spin channel: 
 S num electrons of group 1:  326.101502
 P num electrons of group 1:  777.776034
  Integrated number of electrons for DOWN spin channel done. <=
================================================================================

------------------------------ TIMING INFORMATION ------------------------------
AVERAGE TIME:   14737.273s on    160 proc(s)                                    
TOTAL TIME:     14737.317s on    160 proc(s)                                    
================= AVERAGE TIMINGS FROM ALL PROCS (CUMULATIVE) ==================
|| TAG                                    #calls    cpu time   %total  Gflops ||
|| work_imbalance                       :     1        0.00s   0.000%  ------ ||
|| paw_tcore_density                    :     1        0.01s   0.000%  ------ ||
|| paw_sphere_density_on_grid           :     1        0.01s   0.000%  ------ ||
|| sparse_set_to_garbage                :   471        0.01s   0.000%  ------ ||
|| paw_dij_hartree                      :   403        0.01s   0.000%  ------ ||
|| ngwfs_initialise_from_radial         :     2        0.03s   0.000%  ------ ||
|| basis_extract_function_from_box      :   761        0.05s   0.000%  ------ ||
|| ewald_calculate_energy               :     1        0.10s   0.001%  ------ ||
|| pseudo_make_structure_factor         :     1        0.25s   0.002%  ------ ||
|| paw_dataset_init                     :     3        0.28s   0.002%  ------ ||
|| paw_tcore_hartree_on_grid            :     1        0.35s   0.002%  ------ ||
|| density_init_guess_real              :     1        0.73s   0.005%  ------ ||
|| dense_normal_eigensolve              :     1        0.94s   0.006%  ------ ||
|| sparse_init                          :     1        1.10s   0.007%  ------ ||
|| paw_species_calc_proj_prec_mat       :     1        1.52s   0.010%  ------ ||
|| augmentation_screen_dij              :   282        4.27s   0.029%  ------ ||
|| restart_kernel_write                 :    27        4.88s   0.033%  ------ ||
|| sw_init                              :     1        5.01s   0.034%  ------ ||
|| paw_dij_xc                           :   403       10.00s   0.068%  ------ ||
|| sparse_embed_hotelling_invert_embed  :    53       12.26s   0.083%  ------ ||
|| ngwf_gradient_coeffs                 :    26       13.46s   0.091%  ------ ||
|| basis_copy_function_to_box           : 12599       13.81s   0.094%  ------ ||
|| hartree_on_grid                      :   271       17.41s   0.118%  ------ ||
|| aug_nonlocal_mat                     :   377       20.22s   0.137%  ------ ||
|| fourier_apply_box_pair               :  1921       28.20s   0.191%  1.799k ||
|| sparse_trace                         : 11038       34.98s   0.237%  ------ ||
|| augmentation_density_on_grid         :   271       38.03s   0.258%  ------ ||
|| projectors_init_fftbox_recip         :   159       40.54s   0.275%  ------ ||
|| basis_dot_function_with_box          : 3.740M      72.04s   0.489%  ------ ||
|| eigenstates_pdos                     :     1       75.09s   0.510%  ------ ||
|| projectors_func_ovlp_box             :    54      102.04s   0.692%  ------ ||
|| integrals_kinetic                    :    53      131.63s   0.893%  ------ ||
|| eigenstates_calculate                :     1      140.99s   0.957%  ------ ||
|| function_ops_brappd_ketppd           :   108      214.05s   1.452%  ------ ||
|| hamiltonian_energy_components        :     6      223.51s   1.517%  ------ ||
|| dense_eigensolve                     :   420      225.06s   1.527%  ------ ||
|| fourier_apply_cell_forward           :  9991      250.00s   1.696% 139.101 ||
|| basis_add_function_to_box            : 9.604M     274.99s   1.866%  ------ ||
|| sparse_product                       : 15341      315.50s   2.141%  ------ ||
|| fourier_apply_cell_backward          : 11072      369.55s   2.508% 104.280 ||
|| cell_grid_deposit_box_real           : 20147      393.60s   2.671%  ------ ||
|| cell_grid_extract_box_real           :  7972      446.02s   3.026%  ------ ||
|| restart_ngwfs_tightbox_output        :    25      499.44s   3.389%  ------ ||
|| integrals_locpot_mat_els_batch       :   472      630.45s   4.278%  ------ ||
|| density_batch_row_sums               :   542      630.72s   4.280%  ------ ||
|| edft_diag_ngwf_ham                   :   418      678.70s   4.605%  ------ ||
|| xc_energy_potential                  :   270      700.72s   4.755%  ------ ||
|| density_fftbox_deposit_to_cell       :  9214      784.40s   5.323%  ------ ||
|| density_fftbox_interpolate_multiply  :  9214      866.77s   5.881%  ------ ||
|| projectors_gradient_batch            :    52      890.75s   6.044%  ------ ||
|| properties_calculate                 :     1      930.97s   6.317%  ------ ||
|| nlxc_vdw_energy                      :   540      939.68s   6.376%  ------ ||
|| fourier_apply_box                    : 42930      942.95s   6.398%  3.864k ||
|| edft_apply_smearing_operator         :   209     1065.21s   7.228%  ------ ||
|| potential_apply_to_ngwf_batch        :   472     1125.05s   7.634%  ------ ||
|| integrals_locpot_dbl_grid            :   236     1759.56s  11.939%  ------ ||
|| density_batch_interp_deposit         :   542     2193.66s  14.885%  ------ ||
|| projectors_grad_precond_batch        :    52     2259.69s  15.333%  ------ ||
|| density_on_dbl_grid                  :   271     2996.17s  20.331%  ------ ||
|| ngwf_gradient_build_batch            :    52     3471.14s  23.553%  ------ ||
|| hamiltonian_lhxc_calculate           :   263     3774.85s  25.614%  ------ ||
|| ngwf_gradient_batch                  :    52     3787.69s  25.701%  ------ ||
|| ngwf_gradient_lnv                    :    26     5477.33s  37.167%  ------ ||
|| edft_calculate                       :    26     6381.11s  43.299%  ------ ||
|| ngwf_cg_optimise                     :     1    13775.38s  93.473%  ------ ||
|| total_time                           :     1    14737.27s 100.000%  ------ ||
================================================================================
==================== AVERAGE TIMINGS FROM ALL PROCS (SELF) =====================
++ TAG                                    #calls    cpu time   %total  Gflops ++
++ nlxc_vdw_energy                      :   540       -7.54s  -0.051%  ------ ++
++ work_imbalance                       :     1        0.00s   0.000%  ------ ++
++ paw_tcore_density                    :     1        0.00s   0.000%  ------ ++
++ paw_sphere_density_on_grid           :     1        0.01s   0.000%  ------ ++
++ paw_tcore_hartree_on_grid            :     1        0.01s   0.000%  ------ ++
++ sparse_set_to_garbage                :   471        0.01s   0.000%  ------ ++
++ paw_dij_hartree                      :   403        0.01s   0.000%  ------ ++
++ ngwfs_initialise_from_radial         :     2        0.03s   0.000%  ------ ++
++ basis_extract_function_from_box      :   761        0.05s   0.000%  ------ ++
++ ewald_calculate_energy               :     1        0.10s   0.001%  ------ ++
++ ngwf_gradient_coeffs                 :    26        0.12s   0.001%  ------ ++
++ pseudo_make_structure_factor         :     1        0.25s   0.002%  ------ ++
++ paw_dataset_init                     :     3        0.28s   0.002%  ------ ++
++ density_init_guess_real              :     1        0.38s   0.003%  ------ ++
++ sparse_embed_hotelling_invert_embed  :    53        0.42s   0.003%  ------ ++
++ dense_normal_eigensolve              :     1        0.94s   0.006%  ------ ++
++ hartree_on_grid                      :   271        1.02s   0.007%  ------ ++
++ sparse_init                          :     1        1.10s   0.007%  ------ ++
++ paw_species_calc_proj_prec_mat       :     1        1.27s   0.009%  ------ ++
++ aug_nonlocal_mat                     :   377        1.28s   0.009%  ------ ++
++ main_program_(onetep.F90)            :     1        2.08s   0.014%  ------ ++
++ augmentation_screen_dij              :   282        3.45s   0.023%  ------ ++
++ hamiltonian_energy_components        :     6        3.75s   0.025%  ------ ++
++ integrals_locpot_dbl_grid            :   236        4.06s   0.028%  ------ ++
++ restart_kernel_write                 :    27        4.88s   0.033%  ------ ++
++ sw_init                              :     1        5.01s   0.034%  ------ ++
++ paw_dij_xc                           :   403       10.00s   0.068%  ------ ++
++ augmentation_density_on_grid         :   271       10.30s   0.070%  ------ ++
++ basis_copy_function_to_box           : 12599       13.81s   0.094%  ------ ++
++ fourier_apply_box_pair               :  1921       28.20s   0.191%  1.799k ++
++ sparse_trace                         : 11038       34.98s   0.237%  ------ ++
++ projectors_init_fftbox_recip         :   159       40.54s   0.275%  ------ ++
++ eigenstates_calculate                :     1       48.79s   0.331%  ------ ++
++ eigenstates_pdos                     :     1       61.49s   0.417%  ------ ++
++ projectors_func_ovlp_box             :    54       62.26s   0.422%  ------ ++
++ basis_dot_function_with_box          : 3.740M      72.04s   0.489%  ------ ++ (!) overhead: ~   5.6%
++ edft_calculate                       :    26       79.47s   0.539%  ------ ++
++ xc_energy_potential                  :   270      105.44s   0.715%  ------ ++
++ integrals_kinetic                    :    53      113.70s   0.772%  ------ ++
++ hamiltonian_lhxc_calculate           :   263      126.71s   0.860%  ------ ++
++ ngwf_gradient_build_batch            :    52      136.95s   0.929%  ------ ++
++ density_on_dbl_grid                  :   271      171.79s   1.166%  ------ ++
++ ngwf_gradient_batch                  :    52      201.87s   1.370%  ------ ++
++ function_ops_brappd_ketppd           :   108      214.05s   1.452%  ------ ++
++ dense_eigensolve                     :   420      225.06s   1.527%  ------ ++
++ fourier_apply_cell_forward           :  9991      250.00s   1.696% 139.101 ++
++ basis_add_function_to_box            : 9.604M     274.99s   1.866%  ------ ++ (!) overhead: ~   3.8%
++ sparse_product                       : 15341      315.50s   2.141%  ------ ++
++ density_fftbox_interpolate_multiply  :  9214      333.31s   2.262%  ------ ++
++ ngwf_cg_optimise                     :     1      338.31s   2.296%  ------ ++
++ edft_apply_smearing_operator         :   209      363.76s   2.468%  ------ ++
++ fourier_apply_cell_backward          : 11072      369.55s   2.508% 104.280 ++
++ density_fftbox_deposit_to_cell       :  9214      392.60s   2.664%  ------ ++
++ cell_grid_deposit_box_real           : 20147      393.60s   2.671%  ------ ++
++ cell_grid_extract_box_real           :  7972      446.02s   3.026%  ------ ++
++ edft_diag_ngwf_ham                   :   418      454.76s   3.086%  ------ ++
++ density_batch_row_sums               :   542      474.39s   3.219%  ------ ++
++ density_batch_interp_deposit         :   542      487.21s   3.306%  ------ ++
++ restart_ngwfs_tightbox_output        :    25      499.42s   3.389%  ------ ++
++ properties_calculate                 :     1      528.29s   3.585%  ------ ++
++ integrals_locpot_mat_els_batch       :   472      574.77s   3.900%  ------ ++
++ potential_apply_to_ngwf_batch        :   472      670.42s   4.549%  ------ ++
++ projectors_gradient_batch            :    52      863.85s   5.862%  ------ ++
++ fourier_apply_box                    : 42930      942.95s   6.398%  3.864k ++
++ ngwf_gradient_lnv                    :    26     1676.18s  11.374%  ------ ++
++ projectors_grad_precond_batch        :    52     2225.59s  15.102%  ------ ++
================================================================================
(!) WARNING: You're wasting precious cycles calling timer. 
             Each pair of timer_clock calls itself cost   1.08 microseconds!
Overhead of generating timer report: 
- 0 ms averaging over threads,
- 19 ms ensuring consistency across MPI ranks,
- 0 ms printing in order.

Job completed: 19-12-2021 17:58 (-0000)

