 +---------------------------------------------------------------+
 |                                                               |
 |        ####### #     # ####### ####### ####### ######         |
 |        #     # ##    # #          #    #       #     #        |
 |        #     # # #   # #          #    #       #     #        |
 |        #     # #  #  # #####      #    #####   ######         |
 |        #     # #   # # #          #    #       #              |
 |        #     # #    ## #          #    #       #              |
 |        ####### #     # #######    #    ####### #              |
 |                                                               |
 |        Linear-Scaling Ab Initio Total Energy Program          |
 |                                                               |
 |          Release for academic collaborators of ODG            |
 |                                             Version 5.3.2.12  |
 |                                                               |
 +---------------------------------------------------------------+
 |                                                               |
 |  Authors:                                                     |
 |  Jacek Dziedzic, Peter D. Haynes, Nicholas D. M. Hine,        |
 |  Arash. A. Mostofi, Mike C. Payne and Chris-Kriton Skylaris   |
 |                                                               |
 |  Contributors:                                                |
 |  J. Aarons, L. Andrinopoulos, P. W. Avraam, R. A. Bell,       |
 |  A. Bhandari, G. A. Bramley, R. J. Charlton, S. J. Clark,     |
 |  R. J. Clements, G. C. Constantinescu, F. Corsetti,           |
 |  N. Corsini, O. Dieguez, S. M. M. Dubois, K. K. B. Duff,      |
 |  J. M. Escartin, A. Greco, H. Helal, Q. O. Hill, L. P. Lee,   |
 |  J.-H. Li, E. B. Linscott, G. Moynihan, D. D. O`Regan,        |
 |  O. K. Okan, M. J. S. Phipps, C. J. Pickard,                  |
 |  J. C. A. Prentice, M. I. J. Probert, L. E. Ratcliff,         |
 |  M. Robinson, A. Ruiz Serrano, J. S. Spencer, E. W. Tait,     |
 |  G. Teobaldi, D. Turban, V. Vitale, K. A. Wilkinson,          |
 |  C. Weber, J. C. Womack, N. Yeung and T. J. Zuehlsdorff       |
 |                                                               |
 |                                   Copyright (c) 2004-2020     |
 |                                                               |
 |  Please cite:                                                 |
 |  "Introducing ONETEP: Linear-scaling density functional       |
 |   simulations on parallel computers".                         |
 |   C.-K. Skylaris, P. D. Haynes, A. A. Mostofi, M. C. Payne.   |
 |   J. Chem. Phys. 122 084119 (2005).                           |
 |                                                               |
 |          in all publications arising from your use of ONETEP. |
 |                                                               |
 +---------------------------------------------------------------+
 |                                                               |
 |   ONETEP is based on developments described in the following  |
 |   publications:                                               |
 |                                                               |
 |  "Nonorthogonal generalized Wannier function pseudopotential  |
 |   plane-wave method".                                         |
 |   C.-K. Skylaris, A. A. Mostofi, P. D. Haynes, O. Dieguez,    |
 |   M. C. Payne.                                                |
 |   Phys. Rev. B 66 035119 (2002).                              |
 |                                                               |
 |  "Preconditioned iterative minimization for linear-scaling    |
 |   electronic structure calculations".                         |
 |   A. A. Mostofi, P. D. Haynes, C.-K. Skylaris, M. C. Payne.   |
 |   J. Chem. Phys. 119(17), pp.8842-8848 (2003).                |
 |                                                               |
 |  "Total-energy calculations on a real space grid with         |
 |   localized functions and a plane-wave basis".                |
 |   A. A. Mostofi, C.-K. Skylaris, P. D. Haynes, M. C. Payne.   |
 |   Comput. Phys. Commun. 147, pp.788-802 (2002).               |
 |                                                               |
 |  "Accurate kinetic energy evaluation in electronic structure  |
 |   calculations with localized functions on real space grids"  |
 |   C.-K. Skylaris, A. A. Mostofi, P. D. Haynes, C. J. Pickard, |
 |   M. C. Payne.                                                |
 |   Comput. Phys. Commun. 140, pp.315-322 (2001).               |
 |                                                               |
 |  "Accurate ionic forces and geometry optimization in linear-  |
 |   scaling density-functional theory with local orbitals"      |
 |   N. D. M. Hine, M. Robinson, P. D. Haynes, C.-K. Skylaris,   |
 |   M. C. Payne, and A. A. Mostofi.                             |
 |   Phys. Rev. B 83 195102 (2011).                              |
 |                                                               |
 +---------------------------------------------------------------+

Job started: 29-07-2020 17:31 (+0100)
 
Reading parameters from file "48/592nano.dat" ...... done

If your calculation crashes here, before "Checking processes and threads..."
is displayed, then your stack size is insufficient.
If so, use "ulimit -s unlimited" at runtime.
You can disable this check with "check_stack_size F".

Checking processes and threads...
   Determining the default number of threads...
      No default threads set at compilation time: defaulting to 1.
      OpenMP library call suggests 4 threads.
      Hybrid MPI-OpenMP compilation detected.
      Number of MPI processes > 1.
      OMP_NUM_THREADS environment variable present and
      its value matches the one obtained from the OpenMP library call.
      Using this value as default.
      Default threads: 4
      Default applies to threads_max and threads_num_fftboxes.
      Settings in the input file override this default.
   ... done

   Running with 160 MPI processes.
   There are 10 MPI processes running on the same node as the root process.
   Each MPI process is using: 
               1 threads for simulation cell FFTs.
               1 threads for parallel FFT box operations.
               4 threads for loops over batched FFT box operations.
               4 threads in other parallel regions.
... done

Basic input checks...
Resetting ngwf_cg_rotate to TRUE for EDFT calculations
... done

Reading geometry and species blocks from file "48/592nano.dat" ...    
  Number of PPD points along a3 set to 1.  This is 
  the default value, it may have been provided also in the input file.
... done
 Writing xyz coordinates to file "48/592nano.xyz" ... done


--------------------------------------------------------------------------------
---------------------------------- INPUT FILE ----------------------------------
--------------------------------------------------------------------------------

task : singlepoint                                                              
ddec_classical_hirshfeld T                                                      
do_properties : true                                                            
dx_format T                                                                     
edft T                                                                          
output_detail VERBOSE                                                           
write_xyz T                                                                     
dispersion 4                                                                    
xc_functional PBE                                                               
cutoff_energy 830 eV                                                            
paw T                                                                           
geom_disp_tol 0.015 bohr                                                        
geom_energy_tol 1.5E-6 hartree                                                  
geom_force_tol 0.01 "ha/bohr"                                                   
%BLOCK SPECIES_LDOS_GROUPS                                                      
C                                                                               
H                                                                               
Li                                                                              
%ENDBLOCK SPECIES_LDOS_GROUPS                                                   
EDFT_MAXIT 30                                                                   
pdos_max_l = 2                                                                  
dos_smear  0.1 eV                                                               
popn_calculate T                                                                
PDOS_PSEUDOATOMIC T                                                             
PDOS_REDUCE_SWS F                                                               
PDOS_CONSTRUCT_BASIS F                                                          
PDOS_LOWDIN T                                                                   
PDOS_ORTH_ATOM_BLOCKS F                                                         
PDOS_LCAO_OPTIMIZE F                                                            
pdos_optados_output T                                                           
homo_plot 0                                                                     
lumo_plot 0                                                                     
homo_dens_plot -1                                                               
lumo_dens_plot -1                                                               
%BLOCK SPECIES                                                                  
C C 6 4 9.0                                                                     
H H 1 1 9.0                                                                     
Li Li 3 5 9.0                                                                   
%ENDBLOCK SPECIES                                                               
%BLOCK SPECIES_POT                                                              
C "~/pp/paw/c_pbe_abinit.paw"                                                   
H "~/pp/paw/h_pbe_abinit.paw"                                                   
Li "~/pp/paw/li_pbe_abinit.paw"                                                 
%ENDBLOCK SPECIES_POT                                                           
%BLOCK SPECIES_ATOMIC_SET                                                       
C "SOLVE conf=2s2 2p2"                                                          
H "SOLVE conf=1s1"                                                              
Li "SOLVE conf=1s2 2s1 2p0"                                                     
%ENDBLOCK SPECIES_ATOMIC_SET                                                    
%BLOCK LATTICE_CART                                                             
94.486315650000      0.000000000000       0.000000000000                        
0.000000000000       94.486315650000      0.000000000000                        
0.000000000000       0.000000000000       94.486315650000                       
%ENDBLOCK LATTICE_CART                                                          
%BLOCK POSITIONS_ABS                                                            
C 45.516092 50.735362 30.244329                                                 
C 45.440378 50.549417 36.201013                                                 
C 46.869257 53.075544 30.235576                                                 
C 48.149187 50.541534 36.194707                                                 
C 49.574823 48.391416 30.231111                                                 
C 49.502638 48.201329 36.194236                                                 
C 50.935374 50.736517 30.211428                                                 
C 52.216594 48.190808 36.248881                                                 
C 45.514317 55.408822 30.211245                                                 
C 45.438025 55.241864 36.262854                                                 
C 46.863956 57.748659 30.151239                                                 
C 48.154546 55.242499 36.243256                                                 
C 49.578811 53.076395 30.211020                                                 
C 49.508889 52.878176 36.180762                                                 
C 50.924717 55.413843 30.138498                                                 
C 52.221632 52.871930 36.258636                                                 
C 45.376569 50.553966 43.574979                                                 
C 45.442752 50.457937 49.527581                                                 
C 46.733036 52.899546 43.560628                                                 
C 48.147376 50.478772 49.550364                                                 
C 49.431186 48.195663 43.585983                                                 
C 49.513488 48.149478 49.623801                                                 
C 50.796004 50.538420 43.525840                                                 
C 52.213395 48.165415 49.730680                                                 
C 45.383342 55.259449 43.508577                                                 
C 45.404670 55.148362 49.394148                                                 
C 46.734096 57.589531 43.415431                                                 
C 48.119191 55.170138 49.500562                                                 
C 49.444711 52.883776 43.556236                                                 
C 49.480738 52.830792 49.557963                                                 
C 50.797573 55.228851 43.575329                                                 
C 52.178215 52.848356 49.654027                                                 
C 57.684304 48.374681 29.874502                                                 
C 57.582355 48.168534 36.731313                                                 
C 59.049914 50.710950 29.881794                                                 
C 60.296359 48.162373 37.047314                                                 
C 57.544474 48.180008 43.218359                                                 
C 57.581993 48.196419 50.161009                                                 
C 58.897235 50.524461 43.083981                                                 
C 60.312501 48.213221 50.386434                                                 
C 53.633138 50.732144 30.150343                                                 
C 53.568638 50.527247 36.351794                                                 
C 54.984128 53.075258 30.087139                                                 
C 56.260563 50.520584 36.608446                                                 
C 53.495638 50.526207 43.423991                                                 
C 53.540869 50.510894 49.752560                                                 
C 54.847662 52.863403 43.295729                                                 
C 56.239790 50.527605 49.962124                                                 
C 57.657617 43.710788 29.569349                                                 
C 57.608200 43.490570 36.572350                                                 
C 59.020852 46.034348 29.606124                                                 
C 60.330462 43.503550 36.814372                                                 
C 57.527362 43.489461 43.187875                                                 
C 57.626625 43.516582 50.328588                                                 
C 58.891408 45.818221 43.152752                                                 
C 60.338942 43.542679 50.514262                                                 
C 53.629737 46.058338 30.069141                                                 
C 53.566217 45.824586 36.298674                                                 
C 54.980809 48.381156 30.063228                                                 
C 56.260970 45.834799 36.522675                                                 
C 53.496507 45.843789 43.488598                                                 
C 53.574488 45.828134 49.892777                                                 
C 54.846240 48.183982 43.384881                                                 
C 56.262751 45.849707 50.109572                                                 
C 57.672401 57.767271 29.807116                                                 
C 57.612569 57.548539 36.839424                                                 
C 59.042657 60.160387 29.622331                                                 
C 60.330998 57.523723 37.078818                                                 
C 57.546854 57.537874 42.995504                                                 
C 57.560729 57.552337 49.914175                                                 
C 58.898208 59.878087 42.955803                                                 
C 60.305062 57.559926 49.986250                                                 
C 45.491452 64.763620 30.007498                                                 
C 45.456808 64.588363 36.578747                                                 
C 46.869385 67.131540 29.963304                                                 
C 48.131613 64.592415 36.827868                                                 
C 49.536764 62.412208 29.821587                                                 
C 49.499691 62.248835 36.735696                                                 
C 50.888365 64.786874 29.597801                                                 
C 52.204554 62.259988 36.784984                                                 
C 45.431138 64.601213 43.196388                                                 
C 45.327806 64.485233 50.256450                                                 
C 46.821508 66.953792 43.022598                                                 
C 48.023973 64.521544 50.205935                                                 
C 49.452343 62.224223 43.037736                                                 
C 49.406620 62.197950 49.944467                                                 
C 50.829731 64.576234 42.796621                                                 
C 52.111441 62.224333 49.963255                                                 
C 53.596153 60.082724 29.764098                                                 
C 53.564724 59.919005 36.657419                                                 
C 54.949780 62.450258 29.566059                                                 
C 56.280115 59.898148 36.805471                                                 
C 53.503227 59.865854 43.004447                                                 
C 53.488491 59.886142 49.855132                                                 
C 54.877796 62.214361 42.754265                                                 
C 56.195827 59.893983 49.958816                                                 
C 57.703655 53.070021 29.957798                                                 
C 57.585368 52.860669 36.798131                                                 
C 59.051607 55.408815 29.845319                                                 
C 60.304783 52.857193 37.123243                                                 
C 57.540929 52.861649 43.086340                                                 
C 57.562350 52.877724 50.027890                                                 
C 58.890446 55.215327 42.953961                                                 
C 60.291041 52.897637 50.273250                                                 
C 45.499133 60.086612 30.096572                                                 
C 45.461505 59.912314 36.479516                                                 
C 46.844549 62.417332 29.981066                                                 
C 48.153037 59.919596 36.527854                                                 
C 49.556887 57.749831 30.090245                                                 
C 49.505684 57.583203 36.364646                                                 
C 50.903020 60.091630 29.898405                                                 
C 52.225839 57.584565 36.419784                                                 
C 45.386091 59.928779 43.332753                                                 
C 45.374714 59.848089 49.634806                                                 
C 46.761685 62.254741 43.200851                                                 
C 48.069716 59.853948 49.699703                                                 
C 49.445928 57.574672 43.407835                                                 
C 49.450131 57.517881 49.592754                                                 
C 50.804155 59.899069 43.156337                                                 
C 52.151578 57.532761 49.688744                                                 
C 53.633876 55.408213 30.068279                                                 
C 53.579324 55.232035 36.385840                                                 
C 54.975031 57.762822 29.898252                                                 
C 56.266719 55.209089 36.656725                                                 
C 53.508458 55.206898 43.349839                                                 
C 53.513217 55.202588 49.710648                                                 
C 54.849107 57.541576 43.111374                                                 
C 56.215288 55.209031 49.870886                                                 
H 27.254742 41.368490 28.991304                                                 
H 28.207048 39.431517 37.095982                                                 
H 27.100688 41.271477 42.788384                                                 
H 28.375039 39.161950 50.743148                                                 
H 41.835136 30.262140 29.479017                                                 
C 42.878061 32.047066 29.525446                                                 
H 44.397387 30.062906 36.722622                                                 
H 41.626670 30.092244 42.926673                                                 
C 42.665793 31.879787 42.993142                                                 
H 44.590301 29.976197 49.695360                                                 
H 29.612656 37.241218 29.374239                                                 
C 30.651031 39.024419 29.443376                                                 
H 32.293569 37.062331 36.608670                                                 
H 33.734397 34.856235 29.556677                                                 
C 34.743413 36.659820 29.589367                                                 
H 29.386333 37.232695 43.546547                                                 
C 30.448704 38.998775 43.385119                                                 
H 32.478427 36.883380 50.970754                                                 
H 33.470855 34.798780 44.154592                                                 
C 34.507873 36.562105 43.860592                                                 
H 37.794471 32.569023 29.367996                                                 
C 38.811433 34.372377 29.396396                                                 
H 40.361217 32.407014 36.980776                                                 
H 37.567882 32.401262 43.373910                                                 
C 38.580197 34.202122 43.280920                                                 
H 40.518670 32.291003 50.373827                                                 
H 46.521369 30.276100 29.845460                                                 
H 46.319719 30.099736 43.054974                                                 
H 25.806397 48.175927 36.202180                                                 
C 27.871738 48.191808 36.269185                                                 
H 25.851432 47.888099 50.092528                                                 
C 27.918353 47.921961 50.072902                                                 
H 25.840553 43.490647 36.656360                                                 
H 27.280791 46.127313 29.045331                                                 
C 27.907024 43.497773 36.655971                                                 
H 25.951029 43.169861 50.266165                                                 
H 27.123385 45.970393 42.630681                                                 
C 28.017894 43.207585 50.285861                                                 
H 25.832060 57.658177 36.319327                                                 
H 27.304243 60.058265 28.864497                                                 
C 27.898124 57.637077 36.348395                                                 
H 25.748203 57.280725 49.775375                                                 
H 27.159397 59.908278 44.164974                                                 
C 27.813868 57.292480 49.826117                                                 
H 25.783618 52.908543 36.246967                                                 
H 27.318656 55.362084 28.857204                                                 
C 27.847878 52.905745 36.277753                                                 
H 25.790077 52.572565 49.976718                                                 
H 27.137953 55.213122 43.831394                                                 
C 27.858982 52.594597 49.961315                                                 
C 29.308646 41.371560 29.197767                                                 
C 29.237174 41.216043 36.934567                                                 
C 30.602380 43.734807 29.268764                                                 
C 31.901834 41.159337 36.900608                                                 
C 33.328916 38.938344 29.572321                                                 
C 33.312704 38.864199 36.789598                                                 
C 34.709229 41.352043 29.654364                                                 
C 35.986189 38.847450 36.860490                                                 
C 29.343080 46.100061 29.199499                                                 
C 29.174283 45.847349 36.518951                                                 
C 30.676817 48.405855 29.104692                                                 
C 31.917056 45.850731 36.597769                                                 
C 33.352658 43.716692 29.582747                                                 
C 33.270648 43.519737 36.741819                                                 
C 34.708812 46.053988 29.668416                                                 
C 35.967871 43.532421 36.693782                                                 
C 29.157905 41.269222 42.955607                                                 
C 29.375213 40.962825 50.582115                                                 
C 30.459995 43.610954 42.825714                                                 
C 32.061303 40.943468 50.619451                                                 
C 33.112480 38.889821 43.516388                                                 
C 33.481418 38.684124 50.806313                                                 
C 34.502249 41.240221 43.299273                                                 
C 36.137293 38.685998 50.801779                                                 
C 29.187292 45.958981 42.733188                                                 
C 29.249035 45.592625 50.159107                                                 
C 30.492772 48.271270 42.792862                                                 
C 31.988595 45.621349 50.102520                                                 
C 33.183030 43.579233 43.053886                                                 
C 33.376879 43.320335 50.298357                                                 
C 34.551204 45.911592 43.086053                                                 
C 36.080850 43.359184 50.191499                                                 
C 41.470832 39.041577 29.674981                                                 
C 41.404694 38.849149 36.830288                                                 
C 42.810584 41.382196 29.937101                                                 
C 44.107706 38.837844 36.716533                                                 
C 41.283295 38.862872 43.269009                                                 
C 41.530601 38.746201 50.232339                                                 
C 42.637007 41.190548 43.400393                                                 
C 44.205167 38.757997 49.947768                                                 
C 37.412277 41.358741 29.728134                                                 
C 37.344837 41.208935 36.795479                                                 
C 38.758006 43.715596 29.914324                                                 
C 40.034096 41.176971 36.716919                                                 
C 37.220410 41.218631 43.377120                                                 
C 37.468217 41.062034 50.428685                                                 
C 38.577958 43.553673 43.395352                                                 
C 40.150469 41.062522 50.166582                                                 
C 41.475602 34.340275 29.418462                                                 
C 41.400430 34.192543 36.939232                                                 
C 42.835504 36.703128 29.499788                                                 
C 44.077037 34.132440 36.783066                                                 
C 41.271535 34.162034 43.048511                                                 
C 41.545717 34.083908 50.281973                                                 
C 42.642562 36.513886 43.125730                                                 
C 44.205051 34.046265 49.928436                                                 
C 37.426415 36.630362 29.468656                                                 
C 37.364490 36.543658 36.783551                                                 
C 38.786469 39.020078 29.605793                                                 
C 40.049995 36.472360 36.919256                                                 
C 37.209647 36.471600 43.513875                                                 
C 37.528971 36.411152 50.654384                                                 
C 38.577593 38.858140 43.389797                                                 
C 40.195146 36.363794 50.547511                                                 
C 41.461274 48.394424 30.150157                                                 
C 41.358724 48.209527 36.324857                                                 
C 42.814456 50.736025 30.207127                                                 
C 44.083532 48.208982 36.254221                                                 
C 41.292261 48.228102 43.531433                                                 
C 41.412789 48.078260 49.614109                                                 
C 42.654703 50.564560 43.533915                                                 
C 44.112546 48.106169 49.579704                                                 
C 29.380789 55.378521 29.018938                                                 
C 29.147706 55.298722 36.349267                                                 
C 30.660618 57.729713 29.074695                                                 
C 31.918479 55.283728 36.401920                                                 
C 33.411253 53.072665 29.382151                                                 
C 33.259428 52.927413 36.382667                                                 
C 34.737747 55.410954 29.553338                                                 
C 35.974884 52.919587 36.430406                                                 
C 29.201640 55.222692 43.701229                                                 
C 29.118369 54.928030 49.823177                                                 
C 30.488487 57.563935 43.739590                                                 
C 31.867443 54.977886 49.792796                                                 
C 33.228012 52.916094 43.384012                                                 
C 33.248384 52.653422 49.788755                                                 
C 34.565616 55.252121 43.371716                                                 
C 35.953344 52.695251 49.683514                                                 
C 37.421496 50.738705 29.910112                                                 
C 37.318769 50.571063 36.434410                                                 
C 38.763017 53.072453 30.011049                                                 
C 40.003570 50.566668 36.360326                                                 
C 37.262697 50.580156 43.290035                                                 
C 37.333469 50.371757 49.653561                                                 
C 38.607959 52.917785 43.345311                                                 
C 40.033861 50.404724 49.576566                                                 
C 41.453954 43.719374 30.026957                                                 
C 41.380780 43.511998 36.501729                                                 
C 42.805707 46.056400 30.157171                                                 
C 44.089678 43.506675 36.410948                                                 
C 41.281646 43.538245 43.508407                                                 
C 41.465749 43.407674 49.855406                                                 
C 42.637053 45.867922 43.676504                                                 
C 44.159366 43.429701 49.735118                                                 
C 29.392411 50.736040 29.134270                                                 
C 29.135914 50.539009 36.303453                                                 
C 30.691208 53.078401 29.018094                                                 
C 31.903303 50.549269 36.357196                                                 
C 33.398314 48.397177 29.438753                                                 
C 33.262676 48.205508 36.505541                                                 
C 34.732695 50.737865 29.597407                                                 
C 35.967092 48.212028 36.507586                                                 
C 29.200296 50.589562 43.187133                                                 
C 29.173606 50.285264 50.041766                                                 
C 30.495589 52.909019 43.581139                                                 
C 31.926247 50.317323 49.930889                                                 
C 33.224700 48.250822 43.002170                                                 
C 33.308816 47.991730 49.932342                                                 
C 34.560640 50.583547 43.207598                                                 
C 36.010906 48.019772 49.789012                                                 
C 37.413585 46.050232 29.904770                                                 
C 37.298647 45.880820 36.555510                                                 
C 38.767914 48.394256 30.007126                                                 
C 40.015116 45.871221 36.441000                                                 
C 37.243139 45.894427 43.296598                                                 
C 37.387539 45.703843 49.877726                                                 
C 38.599235 48.235083 43.359812                                                 
C 40.089627 45.729919 49.763585                                                 
C 45.474311 32.056088 29.739288                                                 
C 45.443740 31.837238 36.595450                                                 
C 46.858610 34.351106 29.853811                                                 
C 48.028165 31.823887 36.254906                                                 
H 49.054442 30.034266 36.126815                                                 
H 50.548033 32.605786 30.016787                                                 
C 45.510152 36.703487 29.785539                                                 
C 45.435824 36.480737 36.633178                                                 
C 46.834581 39.045743 29.997438                                                 
C 48.100696 36.464887 36.293658                                                 
C 49.514978 34.395997 29.977505                                                 
C 49.431518 34.100309 36.107101                                                 
C 50.867107 36.653010 29.959633                                                 
C 52.126939 34.122841 36.030182                                                 
C 45.275615 31.883869 43.073978                                                 
C 45.618976 31.768248 49.733742                                                 
C 46.666251 34.162456 43.227987                                                 
C 48.265467 31.779477 49.661793                                                 
H 49.304105 29.994883 49.579020                                                 
H 50.364910 32.397129 43.398426                                                 
C 45.326037 36.510620 43.234036                                                 
C 45.573171 36.420341 49.856360                                                 
C 46.675192 38.848136 43.375088                                                 
C 48.266271 36.436756 49.796885                                                 
C 49.339238 34.193969 43.375033                                                 
C 49.672185 34.079282 49.789783                                                 
C 50.706111 36.458174 43.504407                                                 
C 52.317326 34.139274 50.046520                                                 
H 53.124162 32.311240 35.958817                                                 
H 53.364652 32.356350 50.064897                                                 
C 57.626553 39.049095 29.490939                                                 
C 57.663359 38.761730 36.346839                                                 
C 59.012601 41.363226 29.250694                                                 
C 60.327115 38.854269 36.531193                                                 
C 57.474393 38.814983 43.144988                                                 
C 57.677616 38.816247 50.534599                                                 
C 58.878709 41.120259 43.041145                                                 
C 60.357157 38.912173 50.572256                                                 
C 45.512329 46.060203 30.216476                                                 
C 45.435560 45.853351 36.281553                                                 
C 46.868314 48.394724 30.245477                                                 
C 48.153244 45.839100 36.234097                                                 
C 49.548179 43.729473 30.171646                                                 
C 49.495482 43.490914 36.251695                                                 
C 50.914709 46.059347 30.186316                                                 
C 52.213983 43.478142 36.253115                                                 
C 45.361718 45.869436 43.620783                                                 
C 45.484761 45.778104 49.629543                                                 
C 46.717038 48.201528 43.589633                                                 
C 48.184958 45.797456 49.646318                                                 
C 49.395957 43.504941 43.550918                                                 
C 49.551782 43.468503 49.753530                                                 
C 50.774594 45.854585 43.653165                                                 
C 52.244349 43.484888 49.903737                                                 
C 53.596744 41.391908 29.850101                                                 
C 53.557769 41.129058 36.277110                                                 
C 54.968228 43.721587 29.852203                                                 
C 56.274815 41.143546 36.362911                                                 
C 53.447695 41.167692 43.387500                                                 
C 53.599186 41.152041 50.143081                                                 
C 54.828186 43.498807 43.364573                                                 
C 56.307441 41.177174 50.357521                                                 
H 57.275232 34.616009 36.392850                                                 
H 58.627290 37.249621 29.210941                                                 
H 57.376599 34.729639 50.514574                                                 
H 58.482954 37.013007 43.028722                                                 
C 45.492775 41.385616 30.057489                                                 
C 45.457817 41.163067 36.497547                                                 
C 46.855046 43.722646 30.185866                                                 
C 48.134810 41.149834 36.357892                                                 
C 49.521664 39.039461 30.053283                                                 
C 49.475974 38.802536 36.284641                                                 
C 50.893810 41.380424 30.069341                                                 
C 52.183021 38.778766 36.244475                                                 
C 45.330418 41.184253 43.429434                                                 
C 45.533190 41.099482 49.781743                                                 
C 46.700931 43.516979 43.541399                                                 
C 48.226562 41.116833 49.773863                                                 
C 49.365262 38.840353 43.444336                                                 
C 49.595111 38.789400 49.874238                                                 
C 50.742702 41.158269 43.456648                                                 
C 52.273051 38.799295 50.109462                                                 
C 53.555748 36.717757 29.609398                                                 
C 53.537146 36.373537 36.167982                                                 
C 54.952995 39.023776 29.594431                                                 
C 56.247480 36.409619 36.391876                                                 
C 53.397057 36.504940 43.240473                                                 
C 53.654431 36.422710 50.269079                                                 
C 54.798671 38.799268 43.282658                                                 
C 56.323244 36.507515 50.471332                                                 
H 61.375673 37.070417 36.513622                                                 
H 62.687943 39.619381 28.970506                                                 
H 61.403212 37.129959 50.614650                                                 
H 62.558876 39.381243 42.766776                                                 
H 28.222351 61.744272 36.366221                                                 
H 28.088075 61.379334 49.945369                                                 
C 29.367948 60.077581 28.970543                                                 
C 29.242566 59.945427 36.390169                                                 
C 30.666607 62.378632 29.111836                                                 
C 31.937069 59.994023 36.466909                                                 
C 33.382788 57.743204 29.349196                                                 
C 33.291837 57.617856 36.480598                                                 
C 34.715559 60.084961 29.436709                                                 
C 35.994423 57.609266 36.513958                                                 
H 29.625836 64.163274 29.080797                                                 
H 32.326511 64.086754 36.599664                                                 
C 33.352350 62.465424 29.273698                                                 
C 33.348046 62.288580 36.517788                                                 
C 34.728513 64.762027 29.379110                                                 
C 36.026993 62.310419 36.676234                                                 
C 29.208700 59.919797 43.911693                                                 
C 29.131398 59.595366 49.922939                                                 
C 30.509811 62.218925 43.695807                                                 
C 31.805037 59.686031 50.022247                                                 
C 33.211552 57.580257 43.473903                                                 
C 33.197599 57.326794 49.862357                                                 
C 34.546057 59.921288 43.288732                                                 
C 35.897846 57.363890 49.865340                                                 
H 29.479047 64.007142 43.806579                                                 
H 32.131438 63.772314 50.382833                                                 
C 33.168178 62.303581 43.355103                                                 
C 33.176083 61.990160 50.287790                                                 
C 34.563549 64.617857 43.296512                                                 
C 35.815651 62.047367 50.404627                                                 
C 41.458741 57.748220 30.074612                                                 
C 41.399543 57.583763 36.419008                                                 
C 42.803623 60.087294 30.057357                                                 
C 44.096955 57.580460 36.382866                                                 
C 41.323273 57.605213 43.350443                                                 
C 41.310227 57.454250 49.517000                                                 
C 42.687690 59.944507 43.352416                                                 
C 44.022045 57.490662 49.347354                                                 
C 37.426406 60.091471 29.671131                                                 
C 37.366668 59.926552 36.546028                                                 
C 38.774956 62.434969 29.672728                                                 
C 40.059377 59.924387 36.448987                                                 
C 37.262683 59.937687 43.229986                                                 
C 37.235226 59.717880 50.051165                                                 
C 38.619061 62.292663 43.308613                                                 
C 39.929072 59.786463 49.818272                                                 
C 41.463345 53.073337 30.162734                                                 
C 41.369022 52.906399 36.299850                                                 
C 42.811096 55.410094 30.177821                                                 
C 44.084034 52.901559 36.144341                                                 
C 41.301432 52.913576 43.455667                                                 
C 41.357786 52.761534 49.506875                                                 
C 42.662380 55.275351 43.452213                                                 
C 44.069979 52.787416 49.470818                                                 
C 37.419146 55.416406 29.859098                                                 
C 37.328301 55.247488 36.462599                                                 
C 38.765310 57.750726 29.904143                                                 
C 40.033699 55.245674 36.410190                                                 
C 37.266551 55.267750 43.301768                                                 
C 37.272013 55.047822 49.679807                                                 
C 38.611160 57.599570 43.287737                                                 
C 39.982186 55.088945 49.551785                                                 
C 41.404713 67.136305 29.940164                                                 
C 41.450850 66.890266 36.217522                                                 
C 42.818665 69.429751 30.050038                                                 
C 44.109492 66.929298 36.453999                                                 
C 41.372141 67.028456 43.314168                                                 
C 41.256112 66.761745 50.545264                                                 
C 42.800603 69.286036 43.266750                                                 
C 43.960314 66.818940 50.623688                                                 
H 37.723794 68.884774 29.647708                                                 
H 40.420713 68.681634 36.135707                                                 
H 37.632585 68.773939 42.850565                                                 
H 40.211527 68.494267 50.999868                                                 
C 41.451336 62.423945 29.916432                                                 
C 41.430756 62.246827 36.336364                                                 
C 42.794386 64.768002 29.985487                                                 
C 44.115438 62.248461 36.459513                                                 
C 41.343861 62.288096 43.380073                                                 
C 41.288003 62.123972 49.968434                                                 
C 42.730954 64.628879 43.366277                                                 
C 43.997611 62.155266 49.933775                                                 
H 33.690002 66.548592 29.343227                                                 
H 33.518553 66.401432 43.311472                                                 
C 37.403458 64.821284 29.508471                                                 
C 37.401058 64.584483 36.442276                                                 
C 38.758670 67.093910 29.680733                                                 
C 40.084535 64.622709 36.150774                                                 
C 37.225581 64.680484 43.220967                                                 
C 37.203165 64.396115 50.380984                                                 
C 38.638338 66.988913 43.110802                                                 
C 39.921434 64.461447 50.344710                                                 
C 61.674820 41.417044 29.123111                                                 
C 61.625532 41.152630 36.785435                                                 
C 63.014405 43.690090 29.191974                                                 
H 63.681301 41.153737 36.973890                                                 
C 61.752206 46.029323 29.395707                                                 
C 61.600670 45.844094 36.997692                                                 
C 63.071157 48.366303 29.530186                                                 
H 63.647887 45.842907 37.256665                                                 
H 65.077424 43.676402 29.084618                                                 
C 61.542130 41.175937 42.875662                                                 
C 61.643438 41.198127 50.562968                                                 
C 62.893443 43.457016 42.911796                                                 
H 63.711973 41.227008 50.616305                                                 
C 61.634916 45.826599 42.998785                                                 
C 61.627561 45.896582 50.313155                                                 
C 62.937074 48.171642 43.009419                                                 
H 63.694311 45.916626 50.437518                                                 
H 64.956701 43.440705 42.802655                                                 
C 61.833251 55.406021 29.733561                                                 
C 61.610827 55.168113 37.130834                                                 
C 63.097762 57.764700 29.641141                                                 
H 63.665153 55.152759 37.370043                                                 
H 65.178360 53.025786 29.706206                                                 
C 61.612097 55.207977 42.890856                                                 
C 61.594715 55.213230 50.134917                                                 
C 62.889914 57.566596 42.981794                                                 
H 63.662038 55.209348 50.202740                                                 
H 64.990926 52.881645 42.931747                                                 
C 61.800406 50.703325 29.679036                                                 
C 61.593085 50.503410 36.984719                                                 
C 63.111628 53.038886 29.762107                                                 
H 65.135248 48.357184 29.419121                                                 
C 61.652183 50.524327 42.957158                                                 
C 61.592703 50.558529 50.215136                                                 
C 62.923231 52.867221 42.945312                                                 
H 65.002076 48.163406 42.932077                                                 
H 41.786872 71.220162 30.080068                                                 
H 44.448912 71.000509 36.506795                                                 
H 41.791098 71.089643 43.272992                                                 
H 44.273993 70.874298 50.921448                                                 
C 45.467857 69.421571 30.060863                                                 
C 45.493573 69.219512 36.612611                                                 
H 46.506693 71.207339 30.108828                                                 
C 48.082289 69.231284 36.884665                                                 
C 49.545709 67.072859 29.758852                                                 
C 49.490042 66.946810 36.991441                                                 
H 50.587257 68.859020 29.717361                                                 
C 52.173195 66.913766 37.013062                                                 
H 49.113542 71.021017 36.989805                                                 
C 45.448585 69.258377 43.094773                                                 
C 45.330343 69.106028 50.734840                                                 
H 46.495745 71.035194 43.022806                                                 
C 47.963612 69.152235 50.597010                                                 
C 49.485407 66.873834 42.883484                                                 
C 49.378842 66.894124 50.407708                                                 
H 50.528947 68.648712 42.704709                                                 
C 52.061158 66.879414 50.300672                                                 
H 48.973807 70.952958 50.676915                                                 
H 57.297020 66.358340 37.059073                                                 
H 57.163710 66.385215 50.250276                                                 
H 53.189963 68.711642 37.089133                                                 
H 53.068809 68.679644 50.422379                                                 
C 57.620563 62.441183 29.765611                                                 
C 57.636805 62.272608 36.984862                                                 
H 58.629807 64.246380 29.693584                                                 
C 60.320271 62.171899 37.129522                                                 
C 57.533722 62.165469 42.849755                                                 
C 57.562434 62.298300 50.109039                                                 
H 58.568858 63.952898 42.740062                                                 
C 60.245633 62.227543 50.085472                                                 
C 53.571473 64.728849 29.678066                                                 
C 53.576420 64.641812 36.969252                                                 
C 56.256954 64.577620 36.948943                                                 
C 53.497667 64.515731 42.894307                                                 
C 53.470883 64.614779 50.189648                                                 
C 56.145569 64.589203 50.160067                                                 
C 61.731698 60.100477 29.611943                                                 
C 61.616617 59.872672 37.227074                                                 
H 62.757855 61.890814 29.534567                                                 
H 63.672599 59.851192 37.413645                                                 
H 65.161758 57.781354 29.613138                                                 
H 61.362341 63.950428 37.257287                                                 
C 61.580097 59.813814 43.010321                                                 
C 61.581613 59.920096 50.007516                                                 
H 62.597829 61.612570 43.041404                                                 
H 63.646753 59.924134 49.986838                                                 
H 64.959066 57.556860 43.007106                                                 
H 61.274907 64.018715 50.118637                                                 
H 63.659437 50.570983 50.332985                                                 
H 36.505016 34.617843 50.782286                                                 
H 36.178264 66.144542 50.822895                                                 
H 27.132345 50.584129 43.214356                                                 
H 54.532113 66.296975 42.707404                                                 
H 63.647424 50.495389 37.238671                                                 
H 54.430221 34.710954 43.231466                                                 
H 36.328362 34.751485 36.597647                                                 
H 36.375462 66.381262 36.468015                                                 
H 54.604217 66.521784 29.613316                                                 
H 27.329315 50.736058 28.971504                                                 
H 54.548996 34.906065 29.366222                                                 
Li 32.130633 41.192738 26.187254                                                
Li 30.671498 47.961102 32.968470                                                
Li 59.002168 59.835512 53.301788                                                
Li 36.147742 38.741428 33.038800                                                
Li 60.468626 57.741297 26.438630                                                
Li 42.519759 36.270842 33.369937                                                
Li 30.381513 57.202037 53.176258                                                
Li 35.723297 62.170487 46.642990                                                
Li 47.038257 33.935823 53.088821                                                
Li 30.354002 48.014262 46.613322                                                
Li 51.925028 39.115270 26.545290                                                
Li 35.774480 39.011306 46.949027                                                
Li 44.130113 67.214235 26.703727                                                
Li 35.955892 62.738297 32.877535                                                
Li 30.439342 53.160042 32.876788                                                
Li 40.365886 36.145896 46.675142                                                
Li 55.308442 38.575167 46.968812                                                
Li 60.581877 48.216828 46.522853                                                
Li 44.572078 67.224184 46.700889                                                
Li 50.643588 65.031292 46.686881                                                
Li 50.632401 65.060300 33.461025                                                
Li 40.167895 64.686333 39.924575                                                
Li 60.444381 53.301019 46.415115                                                
Li 50.637616 36.041624 39.637036                                                
Li 30.791604 42.286477 46.782475                                                
Li 60.769861 47.983669 33.151378                                                
Li 55.110337 62.559806 33.421954                                                
Li 60.691942 53.162065 33.287997                                                
Li 60.519003 43.059508 46.549975                                                
Li 30.382095 52.921376 39.756836                                                
Li 55.172549 62.469708 46.594589                                                
Li 55.098719 38.638179 39.607543                                                
Li 31.461926 60.028449 32.617641                                                
Li 44.063182 52.882653 40.065938                                                
Li 59.435743 41.385887 33.131428                                                
Li 50.835960 45.886132 39.712554                                                
Li 34.781470 36.683028 39.982967                                                
Li 42.804620 45.955761 39.799850                                                
Li 59.572460 59.874153 33.531751                                                
Li 50.829033 55.096204 39.711018                                                
Li 38.912471 62.237243 53.670381                                                
Li 39.031523 66.249799 46.930312                                                
Li 30.602227 42.372511 33.141997                                                
Li 43.742718 56.778064 53.247037                                                
Li 31.241421 59.874886 40.224753                                                
Li 41.159143 59.289689 57.314017                                                
Li 56.214012 36.825057 32.637823                                                
Li 38.493840 61.990080 57.490800                                                
%ENDBLOCK POSITIONS_ABS                                                         

--------------------------------------------------------------------------------
-------------------------------- END INPUT FILE --------------------------------
--------------------------------------------------------------------------------


 
<<<<<<<<<<<<<<<<<<<<<<<<<<<<<<<<< Full system >>>>>>>>>>>>>>>>>>>>>>>>>>>>>>>>>>
<<<<<<<<<<<<<<<<<<<<<<<<<<< PAW Dataset information >>>>>>>>>>>>>>>>>>>>>>>>>>>
File: ~/pp/paw/c_pbe_abinit.paw; rc = 1.25 bohr; shape type =  3; rshape = 1.25 bohr;
  Atomic number:  6;  ionic charge:  4.000000
    Partial Wave 1: l = 0
    Partial Wave 2: l = 0
    Partial Wave 3: l = 1
    Partial Wave 4: l = 1
  Core charge supplied for Nonlinear Core Corrections
File: ~/pp/paw/h_pbe_abinit.paw; rc = 0.90 bohr; shape type =  3; rshape = 0.90 bohr;
  Atomic number:  1;  ionic charge:  1.000000
    Partial Wave 1: l = 0
    Partial Wave 2: l = 0
File: ~/pp/paw/li_pbe_abinit.paw; rc = 1.42 bohr; shape type =  3; rshape = 1.42 bohr;
  Atomic number:  3;  ionic charge:  3.000000
    Partial Wave 1: l = 0
    Partial Wave 2: l = 0
    Partial Wave 3: l = 0
    Partial Wave 4: l = 1
    Partial Wave 5: l = 1
<<<<<<<<<<<<<<<<<<<<<<<<<<<<<<<<<<<<<<< >>>>>>>>>>>>>>>>>>>>>>>>>>>>>>>>>>>>>>>

-------------------------- Atom counting information ---------------------------
Symbol    Natoms    Nngwfs    Nprojs
  C        484      1936      3872
  H        108       108       216
  Li        48       240       432
.......   ......    ......    ......
Totals:    640      2284      4520
--------------------------------------------------------------------------------

=============================== PSINC grid sizes ===============================
                      Simulation cell:  189 x 189 x 189
                              FFT-box:  117 x 117 x 117
                                  PPD:    7 x   7 x   1
Grid space d1=  0.499927596032a0 (KE cutoff=  30.39413Eh = 827.06648eV)
Grid space d2=  0.499927596032a0 (KE cutoff=  30.39413Eh = 827.06648eV)
Grid space d3=  0.499927596032a0 (KE cutoff=  30.39413Eh = 827.06648eV)
================================================================================
  
WARNING in cell_grid_distribute:
Average of less than one 23-slab per node, so workload cannot be
equally balanced between nodes.

********************* Fourier parallelisation information **********************
       Coarse grid (whole simulation cell) dimensions:    189   189   189
          Real-space ('12') slabs/node (min max mean):      1     2     1
         Recip-space ('23') slabs/node (min max mean):      0     1     0
********************************************************************************

********************* Fourier parallelisation information **********************
       Double grid (whole simulation cell) dimensions:    378   378   378
          Real-space ('12') slabs/node (min max mean):      2     3     2
         Recip-space ('23') slabs/node (min max mean):      1     2     1
********************************************************************************

Atom SCF Calculation for C  : Z (AE atom) =   6 : Z (PS atom) =   4
Config String: 2s2 2p2
Orbitals (num,occ):  2     2.00 2.00
Orbitals   (num,l):  2        0    1
Real-space Grid (nr,dr,rmax): 1377    0.0065406977    9.0000000000
Spherical Bessel Basis (nsws,lmax,cutoff):   37    2  183.0099912382
Confining potential (l,width,scale):  0    3.0000000000  100.0000000000
Confining potential (l,width,scale):  1    3.0000000000  100.0000000000
  1         -5.4350126632   -1.2715272878    4.5135247139   -1.5681949477
  2         -5.3876836850   -1.3562195125    4.4235426751   -1.5380057521
  3         -5.3928844498   -1.3758175853    4.4021699684   -1.5318377811
  4         -5.3988962903   -1.3800385428    4.3975423583   -1.5307324410
  5         -5.4018428823   -1.3823489590    4.3950111904   -1.5301555648
  6         -5.4033571720   -1.3835805046    4.3936635548   -1.5298576834
  7         -5.4041480647   -1.3842324820    4.3929512000   -1.5297032953
  8         -5.4045641108   -1.3845769138    4.3925755232   -1.5296229456
  9         -5.4047838258   -1.3847587737    4.3923775340   -1.5295810042
 10         -5.4049001347   -1.3848548089    4.3922731819   -1.5295590658
 11         -5.4049618018   -1.3849055476    4.3922181562   -1.5295475724
 12         -5.4049945351   -1.3849323732    4.3921891206   -1.5295415432
 13         -5.4050119258   -1.3849465673    4.3921737867   -1.5295383767
 14         -5.4050211723   -1.3849540841    4.3921656816   -1.5295367119
 15         -5.4050260920   -1.3849580684    4.3921613935   -1.5295358358
 16         -5.4050287113   -1.3849601822    4.3921591228   -1.5295353742
 17         -5.4050301068   -1.3849613045    4.3921579192   -1.5295351307
 18         -5.4050308507   -1.3849619010    4.3921572806   -1.5295350022
 19         -5.4050312476   -1.3849622183    4.3921569415   -1.5295349343
 20         -5.4050314594   -1.3849623873    4.3921567612   -1.5295348984
 21         -5.4050315725   -1.3849624773    4.3921566653   -1.5295348794
 22         -5.4050316330   -1.3849625253    4.3921566143   -1.5295348693
Atom SCF converged after  22 iterations to a total energy of     -5.40503163

Atom SCF Calculation for H  : Z (AE atom) =   1 : Z (PS atom) =   1
Config String: 1s1
Orbitals (num,occ):  1     1.00
Orbitals   (num,l):  1        0
Real-space Grid (nr,dr,rmax): 1377    0.0065406977    9.0000000000
Spherical Bessel Basis (nsws,lmax,cutoff):   37    1  183.0099912382
Confining potential (l,width,scale):  0    3.0000000000  100.0000000000
  1         -0.3605254152   -0.2399954029    0.2820952946   -0.2424203210
  2         -0.4156854077   -0.2398249290    0.2871789324   -0.2464796203
  3         -0.4412552402   -0.2379720642    0.2899127187   -0.2499011370
  4         -0.4517265951   -0.2371980236    0.2908966173   -0.2514141636
  5         -0.4557775773   -0.2369735141    0.2911607883   -0.2519713623
  6         -0.4573363459   -0.2369240355    0.2912108681   -0.2521663171
  7         -0.4579443228   -0.2369187864    0.2912112833   -0.2522344454
  8         -0.4581858602   -0.2369215483    0.2912049187   -0.2522587615
  9         -0.4582834939   -0.2369242589    0.2912002081   -0.2522677042
 10         -0.4583235236   -0.2369258837    0.2911975892   -0.2522710965
 11         -0.4583401154   -0.2369267223    0.2911962825   -0.2522724192
 12         -0.4583470483   -0.2369271266    0.2911956643   -0.2522729467
 13         -0.4583499624   -0.2369273145    0.2911953803   -0.2522731607
 14         -0.4583511926   -0.2369274000    0.2911952521   -0.2522732486
 15         -0.4583517136   -0.2369274385    0.2911951948   -0.2522732850
 16         -0.4583519349   -0.2369274556    0.2911951693   -0.2522733002
 17         -0.4583520290   -0.2369274632    0.2911951581   -0.2522733066
Atom SCF converged after  17 iterations to a total energy of     -0.45835203

Atom SCF Calculation for Li : Z (AE atom) =   3 : Z (PS atom) =   3
Config String: 1s2 2s1 2p0
Orbitals (num,occ):  3     2.00 1.00 0.00
Orbitals   (num,l):  3        0    0    1
Real-space Grid (nr,dr,rmax): 1377    0.0065406977    9.0000000000
Spherical Bessel Basis (nsws,lmax,cutoff):   37    2  183.0099912382
Confining potential (l,width,scale):  0    3.0000000000  100.0000000000
Confining potential (l,width,scale):  1    3.0000000000  100.0000000000
  1         -6.0640888065   -4.6655401716    2.5388576516   -0.9989538799
  2         -6.9627542978   -4.0954079129    2.9808988108   -1.1965571426
  3         -7.2692687601   -3.8889996707    3.2029735703   -1.3193883705
  4         -7.3784440298   -3.8322099748    3.2868571989   -1.3711018151
  5         -7.4170278248   -3.8191968371    3.3144974220   -1.3911175539
  6         -7.4303549880   -3.8172386945    3.3228486489   -1.3986896266
  7         -7.4348052089   -3.8175483495    3.3251259310   -1.4015352495
  8         -7.4362242328   -3.8180607346    3.3256233205   -1.4026016384
  9         -7.4366459715   -3.8184145665    3.3256561549   -1.4029998726
 10         -7.4367560626   -3.8186169740    3.3256001574   -1.4031477379
 11         -7.4367765260   -3.8187239825    3.3255481763   -1.4032021548
 12         -7.4367751741   -3.8187782620    3.3255144587   -1.4032219192
 13         -7.4367707398   -3.8188051288    3.3254952336   -1.4032289600
 14         -7.4367680349   -3.8188156035    3.3254870176   -1.4032309087
 15         -7.4367661982   -3.8188217406    3.3254819951   -1.4032318132
 16         -7.4367650112   -3.8188253257    3.3254789583   -1.4032322224
 17         -7.4367642682   -3.8188274151    3.3254771375   -1.4032324006
 18         -7.4367638134   -3.8188286307    3.3254760529   -1.4032324736
 19         -7.4367635392   -3.8188293370    3.3254754103   -1.4032325004
 20         -7.4367633760   -3.8188297469    3.3254750310   -1.4032325080
 21         -7.4367632796   -3.8188299846    3.3254748079   -1.4032325082
Atom SCF converged after  21 iterations to a total energy of     -7.43676328

Determining parallel strategy ...
... using space-filling curve
... NGWF load balancing: max     17;  min     13;  average     14
... Projector load balancing: max     34;  min     25;  average     28
... done
Calculating Ewald energy ...
              Ewald: real-space energy =   36947.558277
        Ewald: reciprocal-space energy =   37246.599608
         Ewald: (sum_charge)**2 Energy =    2939.695857
         Ewald: (sum_charge**2) Energy =     257.375876
                          Ewald Energy =   70997.086151
======================= Empirical dispersion information =======================
Model : Grimme D2
Dispersion Correction Energy: -0.24961886E+01 Hartree
================================================================================
Basis initialisation ...... NGWF spheres initialised
... Projector spheres initialised
... NGWF tight boxes initialised
... Projector tight boxes initialised
... Tight-boxes gathered
... NGWF basis size (local,global):     286358  46067620
... PAW projector initialisation
... done

============================= Charge Augmentation ==============================
                           Aug box size:   13 x  13 x  13
================================================================================

========================== Sparse matrix information ===========================
                        Overlap matrix filling:  36.46%
                        Density kernel filling: 100.00%
              NGWF-Proj overlap matrix filling:  10.25%
                    Aug Overlap matrix filling:  41.34%
                    Hamiltonian matrix filling:  41.34%
                  NGWF diagonal matrix filling:   0.17%
                             KS matrix filling: 100.00% 
                           KSKS matrix filling: 100.00% 
================================================================================

Sparse matrix initialisation ... done
NGWF initialisation ...... done
============ Calculation of NGWF S^-1 using Hotelling algorithm ================ 
         Iteration  |  Frobenius norm and Maximum abs value    (of I-S*S_n^-1)   
               1       0.47489666E+02     0.99687198E+00
               2       0.47204181E+02     0.99375871E+00
               3       0.46676378E+02     0.98757546E+00
               4       0.45764244E+02     0.97537581E+00
               5       0.44346399E+02     0.95160067E+00
               6       0.42406565E+02     0.90641909E+00
               7       0.39992108E+02     0.82386503E+00
               8       0.37130730E+02     0.78641876E+00
               9       0.33992780E+02     0.76539184E+00
              10       0.30897733E+02     0.74989153E+00
              11       0.27745296E+02     0.73540466E+00
              12       0.23912688E+02     0.71064487E+00
              13       0.18935957E+02     0.66595311E+00
              14       0.12974967E+02     0.58873192E+00
              15       0.74075887E+01     0.46724986E+00
              16       0.40735343E+01     0.44300639E+00
              17       0.27123256E+01     0.42954675E+00
              18       0.18596336E+01     0.41146195E+00
              19       0.11841065E+01     0.38285252E+00
              20       0.80704031E+00     0.33285510E+00
              21       0.57473204E+00     0.25166645E+00
              22       0.32684307E+00     0.14387330E+00
              23       0.10681495E+00     0.47021435E-01
              24       0.11409434E-01     0.50225923E-02
              25       0.13017519E-03     0.57304936E-04
              26       0.16945585E-07     0.74596898E-08
              27       0.63706350E-13     0.10658141E-13
================================================================================
Calculating core density ...
================================= Core Density =================================
               Core den box size:   21 x  21 x  21
================================================================================
 ... done
Up spin density kernel initialisation ...... done

Writing density kernel to file "48/592nano.dkn" ... done

>>> Optimising kernel for current NGWFs:

--------------------------- Ensemble-DFT optimisation --------------------------
Running ScaLAPACK on  160 processor(s).

--------------------------------------------------------------------------------
  Iter                              Commutator    Free_energy(A=E-TS)     DeltaA
#    0                          0.001331993029   -3178.66912272357695  -3.18E+03

Step                       =       0.381966011250
Energy                     =   -3178.636464504712
Entropy (-TS)              =      -0.032658218809
Free energy (A=E-TS)       =   -3178.669122723577
Est. 0K Energy 0.5*(E+A)   =   -3178.652793614144
Residual Non-orthogonality =       0.000000000000
Residual N_electrons       =      -0.000000000056

Spin          Integrated_Ne            Fermi_level     Delta_Fermi_level
   1      2187.999999999752        -0.224905902333             -2.25E-01

                           Spin 1          
     Orb      H-eigenvalues     Occupancies
       1 |    -1.8890458904    1.0000000000 | 
                          ------
    1090 |    -0.2306850331    0.8611536765 | 
    1091 |    -0.2305612466    0.8564136078 | 
    1092 |    -0.2297630586    0.8225570527 | 
    1093 |    -0.2289674601    0.7828815834 | 
    1094 |    -0.2282290911    0.7406558343 | 
                 - Gap at zero temperature -
    1095 |    -0.2250036364    0.5077148785 | 
    1096 |    -0.2234317521    0.3856819245 | 
    1097 |    -0.2160504388    0.0575225827 | 
    1098 |    -0.2133704424    0.0255158032 | 
    1099 |    -0.2118960628    0.0161717955 | 
                          ------
    2284 |     0.5549897947    0.0000000000 | 

                       |  Abs_value |  Threshold | Converged
     Delta_Free_energy |   3.18E+03 |   1.00E-06 |        No
     Delta_Energy      |   3.18E+03 |   1.00E-04 |        No
     Delta_Entropy     |   3.27E-02 |   1.00E-04 |        No
     Commutator        |   1.33E-03 |   1.00E-05 |        No
     Delta_Fermi_level |   2.25E-01 |   1.00E-03 |        No

  Line search of the free energy minimum:
  Step_type        Step             Free_energy   Predicted_free_energy
.   Initial    0.000000    -3178.66912272357695
.    Trial1    0.381966    -3165.32913865718410
.    Trial2    0.145898    -3179.59409524068496
. Quadratic    0.091084    -3179.47072745920696    -3180.11929664493482
.     Cubic    0.130691    -3179.75154890024078    -3179.62206375381993

--------------------------------------------------------------------------------
  Iter                              Commutator    Free_energy(A=E-TS)     DeltaA
#    1                          0.001059880699   -3179.75154890024078  -1.08E+00

Step                       =       0.130691320473
Energy                     =   -3179.714047066655
Entropy (-TS)              =      -0.037501833225
Free energy (A=E-TS)       =   -3179.751548900241
Est. 0K Energy 0.5*(E+A)   =   -3179.732797983448
Residual Non-orthogonality =       0.000000000000
Residual N_electrons       =      -0.000000000361

Spin          Integrated_Ne            Fermi_level     Delta_Fermi_level
   1      2187.999999998273        -0.209079823936              1.58E-02

                           Spin 1          
     Orb      H-eigenvalues     Occupancies
       1 |    -1.9793286382    1.0000000000 | 
                          ------
    1090 |    -0.2164884899    0.9120937431 | 
[...]
 C   249 -- C   353       -0.08      5.42030
 C    38 -- C    56       -0.08      5.42060
 C   115 -- C   479       -0.09      5.42089
 C   113 -- C   119       -0.09      5.42102
 C    94 -- C   116       -0.09      5.42110
 C   342 -- C   388       -0.08      5.42129
 C   212 -- C   230       -0.08      5.42135
 C   109 -- C   123       -0.09      5.42156
 C     2 -- C    12       -0.08      5.42158
 C     4 -- C    42       -0.09      5.42175
 C   436 -- C   454       -0.08      5.42196
 C    65 -- C    91       -0.08      5.42228
 C    99 -- C   121       -0.09      5.42232
 C   242 -- C   328       -0.08      5.42255
 C   205 -- C   263       -0.08      5.42267
 C   302 -- C   346       -0.08      5.42282
 C    75 -- C    77       -0.08      5.42283
 C    19 -- C    21       -0.09      5.42284
 C    44 -- C    58       -0.09      5.42290
 C    59 -- C    97       -0.09      5.42314
 C   470 -- C   547       -0.09      5.42335
 C    35 -- C    41       -0.08      5.42347
 C   346 -- C   376       -0.09      5.42355
 C   362 -- C   376       -0.09      5.42360
 C   202 -- C   216       -0.08      5.42362
 C   256 -- C   410       -0.09      5.42376
 C    31 -- C    45       -0.08      5.42377
 C   285 -- C   287       -0.08      5.42395
 C   111 -- C   121       -0.09      5.42410
 C    56 -- C   342       -0.09      5.42423
 C   424 -- C   436       -0.09      5.42433
 C   231 -- C   241       -0.08      5.42469
 C   350 -- C   380       -0.08      5.42469
 C   246 -- C   276       -0.08      5.42474
 C    14 -- C   450       -0.08      5.42503
 C    33 -- C    43       -0.09      5.42509
 C    26 -- C   462       -0.08      5.42510
 C   422 -- C   430       -0.08      5.42513
 C   247 -- C   355       -0.08      5.42515
 C    28 -- C   114       -0.08      5.42526
 C    44 -- C   122       -0.09      5.42553
 C   246 -- C   448       -0.08      5.42553
 H   129 -- Li  635       -0.03      5.42605
 C   437 -- C   443       -0.09      5.42639
 C    72 -- C   102       -0.08      5.42653
 C     4 -- C    10       -0.08      5.42661
 C    12 -- C   122       -0.08      5.42666
 C   185 -- C   299       -0.09      5.42671
 C    40 -- C   102       -0.08      5.42674
 C    53 -- C   395       -0.08      5.42703
 C    38 -- C   104       -0.08      5.42706
 H   426 -- Li  600       -0.03      5.42713
 C    35 -- C   497       -0.07      5.42737
 C   461 -- C   479       -0.09      5.42756
 C    65 -- C   513       -0.06      5.42790
 C   222 -- C   374       -0.09      5.42817
 H   514 -- Li  620       -0.03      5.42825
 C    97 -- C   123       -0.09      5.42875
 C    88 -- C   547       -0.07      5.42877
 C    17 -- C   281       -0.08      5.42902
 C   244 -- C   450       -0.08      5.42909
 C   318 -- C   380       -0.07      5.42933
 C   349 -- C   363       -0.09      5.42946
 C   293 -- C   295       -0.08      5.42974
 C    90 -- C   124       -0.09      5.42993
 C    36 -- C    98       -0.08      5.43006
 C    25 -- C   249       -0.07      5.43029
 C   438 -- C   452       -0.08      5.43032
 C    79 -- C    89       -0.08      5.43036
 C   420 -- C   444       -0.08      5.43036
 C   479 -- C   491       -0.06      5.43047
 C   406 -- C   440       -0.08      5.43059
 C     8 -- C   350       -0.08      5.43079
 C   436 -- C   482       -0.08      5.43096
 C    27 -- C    29       -0.08      5.43244
 C   210 -- Li  604       -0.06      5.43245
 C    60 -- C   362       -0.09      5.43246
 C    19 -- C   451       -0.07      5.43264
 C    85 -- C    95       -0.08      5.43286
 C   362 -- C   392       -0.05      5.43331
 Li  636 -- Li  638        0.37      5.43355
 C   224 -- C   242       -0.08      5.43357
 C   118 -- C   438       -0.08      5.43370
 H   581 -- Li  610       -0.02      5.43420
 C    51 -- C   521       -0.08      5.43420
 C   446 -- C   460       -0.09      5.43451
 C    61 -- C   387       -0.08      5.43494
 C   408 -- C   416       -0.08      5.43503
 C   204 -- C   294       -0.07      5.43528
 C   357 -- C   367       -0.08      5.43543
 C     2 -- C   348       -0.09      5.43579
 C    34 -- C   100       -0.08      5.43588
 C    80 -- C   556       -0.07      5.43594
 C   385 -- C   395       -0.08      5.43597
 C   182 -- C   188       -0.09      5.43715
 C   413 -- C   441       -0.07      5.43735
 C    39 -- C   506       -0.07      5.43802
 C   316 -- C   390       -0.08      5.43867
 C   188 -- C   286       -0.07      5.43891
 C   256 -- C   290       -0.08      5.43892
 C   244 -- C   278       -0.08      5.43896
 C    16 -- C   110       -0.08      5.43909
 C   181 -- C   287       -0.08      5.43910
 C   258 -- C   288       -0.08      5.43914
 C     2 -- C   270       -0.08      5.43917
 C    14 -- C   112       -0.08      5.43958
 C   440 -- C   488       -0.07      5.44030
 C   470 -- C   480       -0.08      5.44181
 C   343 -- C   365       -0.07      5.44225
 C   103 -- C   525       -0.08      5.44359
 C   222 -- C   300       -0.09      5.44380
 C   182 -- C   220       -0.08      5.44424
 C   368 -- C   394       -0.07      5.44529
 C   409 -- C   485       -0.07      5.44635
 C     6 -- C   352       -0.08      5.44641
 C    76 -- C   564       -0.08      5.44687
 C   233 -- C   239       -0.08      5.44693
 H   587 -- Li  609       -0.03      5.44712
 C    17 -- C   453       -0.07      5.44733
 C    84 -- C   567       -0.08      5.44773
 C   206 -- C   292       -0.07      5.44793
 C    67 -- C    89       -0.08      5.44890
 C   339 -- C   361       -0.08      5.44900
 C   114 -- C   446       -0.08      5.44908
 C   333 -- C   365       -0.08      5.45064
 C   377 -- C   391       -0.07      5.45070
 C   185 -- C   235       -0.07      5.45086
 C   253 -- C   413       -0.08      5.45087
 C   427 -- C   445       -0.07      5.45109
 H   500 -- Li  618       -0.03      5.45154
 C    99 -- C   521       -0.07      5.45208
 C   234 -- Li  608       -0.09      5.45267
 C   198 -- C   204       -0.08      5.45302
 C    88 -- C   560       -0.07      5.45344
 C   343 -- C   506       -0.08      5.45418
 C    96 -- C   567       -0.07      5.45569
 C   220 -- C   238       -0.08      5.45604
 C    83 -- C   467       -0.08      5.45767
 C   183 -- C   237       -0.07      5.45827
 C   261 -- C   427       -0.08      5.45828
 C   190 -- C   284       -0.07      5.45906
 C   197 -- C   199       -0.08      5.45910
 C   444 -- C   492       -0.07      5.45924
 C    55 -- C   525       -0.07      5.45963
 C    35 -- C   511       -0.07      5.46009
 C    52 -- C   338       -0.08      5.46048
 C    68 -- C   556       -0.08      5.46072
 C   423 -- C   489       -0.07      5.46209
 C    92 -- C   564       -0.07      5.46252
 C   252 -- C   406       -0.08      5.46262
 C    75 -- C   463       -0.08      5.46472
 C   199 -- C   241       -0.06      5.46667
 C   260 -- C   420       -0.08      5.46776
 C   234 -- C   332       -0.08      5.46899
 C   319 -- C   361       -0.07      5.46992
 C    72 -- C   560       -0.08      5.47625
 C   445 -- C   467       -0.06      5.47788
 H   130 -- Li  635       -0.02      5.47908
 C   338 -- C   380       -0.06      5.48132
 C   185 -- Li  635       -0.06      5.48383
 H   505 -- Li  621       -0.02      5.48527
 C   201 -- C   239       -0.06      5.48779
 C   430 -- C   480       -0.06      5.49024
 C   252 -- C   286       -0.06      5.49096
 H   585 -- Li  623       -0.02      5.49257
 H   571 -- Li  631       -0.03      5.49465
 H   162 -- Li  594       -0.03      5.50006
 C   254 -- C   284       -0.06      5.50134
 C   364 -- C   390       -0.06      5.50325
 C   454 -- Li  636       -0.05      5.50384
 H   509 -- Li  610       -0.02      5.50480
 C   481 -- C   489       -0.06      5.50753
 H   472 -- Li  614       -0.02      5.51197
 C   545 -- Li  611       -0.05      5.51359
 C    67 -- C   511       -0.07      5.51396
 H   141 -- Li  596       -0.03      5.51525
 H   590 -- Li  619       -0.02      5.51898
 H   165 -- Li  602       -0.02      5.52048
 C   181 -- C   183       -0.06      5.52560
 H   131 -- Li  617       -0.02      5.53226
 C   462 -- Li  636       -0.05      5.53621
 C    75 -- Li  613       -0.08      5.53935
 H   174 -- Li  607       -0.02      5.54479
 C   241 -- Li  629       -0.06      5.54510
 H   591 -- Li  607       -0.02      5.54970
 C   193 -- Li  594       -0.06      5.55224
 H   583 -- Li  633       -0.02      5.55437
 C   205 -- Li  622       -0.07      5.55456
 H   147 -- Li  604       -0.02      5.55526
 C    72 -- Li  615       -0.08      5.55974
 C   198 -- Li  604       -0.04      5.56713
 H   398 -- Li  627       -0.02      5.56872
 C   187 -- Li  635       -0.07      5.56986
 C   169 -- Li  637       -0.05      5.58673
 H   532 -- Li  611       -0.02      5.58796
 H   369 -- Li  624       -0.01      5.59011
 Li  594 -- Li  635       -0.15      5.59171
 H   132 -- Li  617       -0.02      5.59369
 H   586 -- Li  618       -0.02      5.59420
 C   488 -- Li  606       -0.07      5.59560
 C   480 -- Li  634       -0.02      5.59860
 H   168 -- Li  625       -0.02      5.60119
 Li  627 -- Li  639       -0.08      5.60574
 H   586 -- Li  620       -0.02      5.60837
 C   153 -- Li  629       -0.07      5.60907
 C    84 -- Li  611       -0.04      5.61295
 C   181 -- Li  594       -0.03      5.61731
 H   146 -- Li  604       -0.02      5.61839
 H   371 -- Li  609       -0.01      5.62475
 H   129 -- Li  593       -0.01      5.62742
 H   473 -- Li  614       -0.02      5.63007
 Li  611 -- Li  634       -0.11      5.63026
 C    83 -- Li  612       -0.04      5.63305
 H   544 -- Li  611       -0.02      5.63494
 C   201 -- Li  629       -0.07      5.64304
 H   572 -- Li  631       -0.02      5.64631
 C   183 -- Li  635       -0.05      5.65428
 H   400 -- Li  621       -0.01      5.65715
 C   513 -- Li  631       -0.04      5.65813
 H   571 -- Li  597       -0.01      5.66073
 H   412 -- Li  637       -0.02      5.66202
 H   573 -- Li  597       -0.01      5.66609
 H   139 -- Li  593       -0.01      5.66671
==================================================


=================== Orbital energy and occupancy information ===================

      Total number of orbitals:    2284
        Occupancy sum (kernel):    1094.000000000
   Occupancy sum (eigenvalues):    1094.000000000
                 HOMO-LUMO gap:       0.000522003 Eh
                 Mid-gap level:      -0.062384440 Eh

                        Orbital | Energy (Eh) | Occupancy
                            1    -1.882472325   1.0000000
                        .......   ...........   .........
                         1086    -0.076186607   0.9840543
                         1087    -0.074390617   0.9721914
                         1088    -0.073371731   0.9621628
                         1089    -0.071655433   0.9369060
                         1090    -0.068388606   0.8414335
                         1091    -0.065957948   0.7117715
                         1092    -0.065523973   0.6820855
                         1093    -0.064635317   0.6183990
                         1094    -0.063395151   0.5216148
                         1095    -0.062645442   0.4678052
                        ....... -- gap at 0K -- .........
                         1096    -0.062123438   0.4265103
                         1097    -0.060861750   0.3304734
                         1098    -0.059027853   0.2148637
                         1099    -0.056503112   0.1096336
                         1100    -0.053430447   0.0445507
                         1101    -0.052434038   0.0330530
                         1102    -0.052389463   0.0329496
                         1103    -0.051345485   0.0235836
                         1104    -0.049801401   0.0146820
                         1105    -0.049311914   0.0125528
                        .......   ...........   .........
                         2284     0.782235965   0.0000000

================================================================================

===================== Writing canonical molecular orbitals =====================
| Orbital  Energy (eV)  Norm     |
| HOMO     -1.70466921  1.000000 | Writing "48/592nano_HOMO.cube" ... done
Writing "48/592nano_HOMO.dx" ... done
| LUMO     -1.69046477  1.000000 | Writing "48/592nano_LUMO.cube" ... done
Writing "48/592nano_LUMO.dx" ... done
================================================================================

================== Local Density of States (LDOS) calculation ==================
Writing "48/592nano_LDOS.txt" ...  done
================================================================================
 
===================== Density of States (DOS) calculation ======================
Writing "48/592nano_DOS.txt" ...  done
================================================================================
 
Writing bands to file "48/592nano.val_bands" ... done
 
================ Projected Density of States (pDOS) calculation ================
 
Constructing AM resolved functions  ...... done
Writing NGWF plot files in formats: CUBE DX ...  done
 
Performing overlap integrals ...  done
 
Computing pDOS weights ...  done
 
All bands spilling parameter =   2.98 %
Occupancy-weighted spilling parameter =   0.82 %
 
 => Outputting data for OptaDOS <=
 
Writing pDOS weights to file "48/592nano.val_pdos_bin" ... done
 
Writing band gradients to file "48/592nano.val_dome_bin" ... done
 
Writing Castep output cell file to "48/592nano-out.cell" ... done
 
 => Computing Gaussian smeared pDOS <= 
Writing "48/592nano_PDOS.txt" ...  done
 
 => Computing Occupancy-weighted Gaussian smeared pDOS <= 
Writing "48/592nano_occ_PDOS.txt" ...  done
  => Band centres: 
 S band centre of group 1:  -19.377111 eV
 P band centre of group 1:   -8.298434 eV
  Band centres done. <=
  => Integrated number of electrons in each AM band: 
 S num electrons of group 1:  627.773513
 P num electrons of group 1: 1542.222302
  Integrated number of electrons done. <=
================================================================================

------------------------------ TIMING INFORMATION ------------------------------
AVERAGE TIME:   11444.954s on    160 node(s)                                    
TOTAL TIME:     11444.955s on    160 node(s)                                    
================= AVERAGE TIMINGS FROM ALL NODES (CUMULATIVE) ==================
|| TAG                                    #calls    cpu time   %total  Gflops ||
|| work_imbalance                       :     1        0.00s   0.000%  ------ ||
|| paw_sphere_density_on_grid           :     1        0.01s   0.000%  ------ ||
|| paw_tcore_density                    :     1        0.01s   0.000%  ------ ||
|| sparse_set_to_garbage                :   159        0.01s   0.000%  ------ ||
|| basis_extract_function_from_box      :   399        0.02s   0.000%  ------ ||
|| paw_dij_hartree                      :  1138        0.04s   0.000%  ------ ||
|| ngwfs_initialise_from_radial         :     2        0.04s   0.000%  ------ ||
|| ewald_calculate_energy               :     1        0.12s   0.001%  ------ ||
|| density_init_guess_real              :     1        0.17s   0.001%  ------ ||
|| paw_dataset_init                     :     3        0.33s   0.003%  ------ ||
|| paw_tcore_hartree_on_grid            :     1        0.36s   0.003%  ------ ||
|| pseudo_make_structure_factor         :     1        0.53s   0.005%  ------ ||
|| restart_kernel_write                 :    15        0.89s   0.008%  ------ ||
|| sparse_init                          :     1        1.08s   0.009%  ------ ||
|| dense_normal_eigensolve              :     1        1.47s   0.013%  ------ ||
|| paw_species_calc_proj_prec_mat       :     1        2.21s   0.019%  ------ ||
|| fourier_apply_box_pair               :   598        6.89s   0.060%  2.295k ||
|| sw_init                              :     1        7.55s   0.066%  ------ ||
|| ngwf_gradient_coeffs                 :    14        8.02s   0.070%  ------ ||
|| sparse_embed_hotelling_invert_embed  :    27        9.50s   0.083%  ------ ||
|| augmentation_screen_dij              :   854       17.45s   0.152%  ------ ||
|| basis_copy_function_to_box           : 16773       23.51s   0.205%  ------ ||
|| paw_dij_xc                           :  1138       25.10s   0.219%  ------ ||
|| projectors_init_fftbox_recip         :    85       31.72s   0.277%  ------ ||
|| integrals_kinetic                    :    27       41.80s   0.365%  ------ ||
|| hartree_on_grid                      :   849       43.23s   0.378%  ------ ||
|| projectors_func_ovlp_box             :    28       43.31s   0.378%  ------ ||
|| function_ops_brappd_ketppd           :    56       48.24s   0.422%  ------ ||
|| hamiltonian_energy_components        :     3       54.00s   0.472%  ------ ||
|| eigenstates_pdos                     :     1       67.18s   0.587%  ------ ||
|| augmentation_density_on_grid         :   849       75.11s   0.656%  ------ ||
|| aug_nonlocal_mat                     :  1124       86.34s   0.754%  ------ ||
|| sparse_trace                         : 10656       91.78s   0.802%  ------ ||
|| fourier_apply_cell_forward           :  4241       92.04s   0.804% 160.371 ||
|| fourier_apply_cell_backward          :  4242       96.75s   0.845% 152.606 ||
|| basis_dot_function_with_box          : 3.722M     103.03s   0.900%  ------ ||
|| eigenstates_calculate                :     1      125.38s   1.095%  ------ ||
|| restart_ngwfs_tightbox_output        :    13      152.72s   1.334%  ------ ||
|| xc_energy_potential                  :   848      169.05s   1.477%  ------ ||
|| basis_add_function_to_box            : 10.76M     282.37s   2.467%  ------ ||
|| projectors_gradient_batch            :    28      333.96s   2.918%  ------ ||
|| sparse_product                       :  9324      357.92s   3.127%  ------ ||
|| dense_eigensolve                     :   818      359.44s   3.141%  ------ ||
|| cell_grid_extract_box_real           :  9632      434.93s   3.800%  ------ ||
|| cell_grid_deposit_box_real           : 31462      451.48s   3.945%  ------ ||
|| projectors_grad_precond_batch        :    28      459.24s   4.013%  ------ ||
|| integrals_locpot_mat_els_batch       :   568      567.26s   4.956%  ------ ||
|| density_fftbox_deposit_to_cell       : 14433      804.40s   7.028%  ------ ||
|| ngwf_gradient_build_batch            :    28      878.62s   7.677%  ------ ||
|| ngwf_gradient_batch                  :    28      960.05s   8.388%  ------ ||
|| properties_calculate                 :     1     1034.77s   9.041%  ------ ||
|| density_batch_row_sums               :  1698     1038.06s   9.070%  ------ ||
|| potential_apply_to_ngwf_batch        :   568     1085.74s   9.487%  ------ ||
|| edft_diag_ngwf_ham                   :   817     1133.16s   9.901%  ------ ||
|| fourier_apply_box                    : 52415     1154.44s  10.087%  3.931k ||
|| ngwf_gradient_lnv                    :    14     1339.68s  11.705%  ------ ||
|| density_fftbox_interpolate_multiply  : 14433     1377.35s  12.035%  ------ ||
|| integrals_locpot_dbl_grid            :   284     1661.61s  14.518%  ------ ||
|| edft_apply_smearing_operator         :   817     1962.30s  17.146%  ------ ||
|| density_batch_interp_deposit         :  1698     2824.07s  24.675%  ------ ||
|| density_on_dbl_grid                  :   849     4129.84s  36.084%  ------ ||
|| hamiltonian_lhxc_calculate           :   844     4662.44s  40.738%  ------ ||
|| edft_calculate                       :    14     8512.01s  74.373%  ------ ||
|| ngwf_cg_optimise                     :     1    10393.63s  90.814%  ------ ||
|| total_time                           :     1    11444.95s 100.000%  ------ ||
================================================================================
Overhead of generating timer report: 
- 0 ms averaging over threads,
- 25 ms ensuring consistency across MPI ranks,
- 0 ms printing in order.

Job completed: 29-07-2020 20:42 (+0100)

