 +---------------------------------------------------------------+
 |                                                               |
 |        ####### #     # ####### ####### ####### ######         |
 |        #     # ##    # #          #    #       #     #        |
 |        #     # # #   # #          #    #       #     #        |
 |        #     # #  #  # #####      #    #####   ######         |
 |        #     # #   # # #          #    #       #              |
 |        #     # #    ## #          #    #       #              |
 |        ####### #     # #######    #    ####### #              |
 |                                                               |
 |        Linear-Scaling Ab Initio Total Energy Program          |
 |                                                               |
 |          Release for academic collaborators of ODG            |
 |                                             Version 6.1.3.6   |
 |                                                               |
 +---------------------------------------------------------------+
 |                                                               |
 |  Authors:                                                     |
 |  Jacek Dziedzic, Peter D. Haynes, Nicholas D. M. Hine,        |
 |  Arash A. Mostofi, Mike C. Payne and Chris-Kriton Skylaris    |
 |                                                               |
 |  Contributors:                                                |
 |  J. Aarons, L. Andrinopoulos, P. W. Avraam, R. A. Bell,       |
 |  A. Bhandari, G. A. Bramley, R. J. Charlton, S. J. Clark,     |
 |  R. J. Clements, G. C. Constantinescu, F. Corsetti,           |
 |  N. Corsini, O. Dieguez, S. M. M. Dubois, K. K. B. Duff,      |
 |  J. M. Escartin, A. Greco, H. Helal, Q. O. Hill, L. P. Lee,   |
 |  J.-H. Li, E. B. Linscott, G. Moynihan, D. D. O`Regan,        |
 |  O. K. Okan, M. J. S. Phipps, C. J. Pickard,                  |
 |  J. C. A. Prentice, M. I. J. Probert, L. E. Ratcliff,         |
 |  M. Robinson, A. Ruiz Serrano, J. S. Spencer, E. W. Tait,     |
 |  G. Teobaldi, D. Turban, V. Vitale, K. A. Wilkinson,          |
 |  C. Weber, J. C. Womack, N. Yeung and T. J. Zuehlsdorff       |
 |                                                               |
 |                                   Copyright (c) 2004-2021     |
 |                                                               |
 |  Please cite:                                                 |
 |  "The ONETEP linear-scaling density functional theory program"|
 |   J. Chem. Phys. 152(17) 174111 (2020)                        |
 |                                                               |
 |          in all publications arising from your use of ONETEP. |
 |                                                               |
 +---------------------------------------------------------------+
 |                                                               |
 |   ONETEP is based on developments described in the following  |
 |   publications:                                               |
 |                                                               |
 |  "Nonorthogonal generalized Wannier function pseudopotential  |
 |   plane-wave method".                                         |
 |   C.-K. Skylaris, A. A. Mostofi, P. D. Haynes, O. Dieguez,    |
 |   M. C. Payne.                                                |
 |   Phys. Rev. B 66 035119 (2002).                              |
 |                                                               |
 |  "Preconditioned iterative minimization for linear-scaling    |
 |   electronic structure calculations".                         |
 |   A. A. Mostofi, P. D. Haynes, C.-K. Skylaris, M. C. Payne.   |
 |   J. Chem. Phys. 119(17), pp.8842-8848 (2003).                |
 |                                                               |
 |  "Total-energy calculations on a real space grid with         |
 |   localized functions and a plane-wave basis".                |
 |   A. A. Mostofi, C.-K. Skylaris, P. D. Haynes, M. C. Payne.   |
 |   Comput. Phys. Commun. 147, pp.788-802 (2002).               |
 |                                                               |
 |  "Accurate kinetic energy evaluation in electronic structure  |
 |   calculations with localized functions on real space grids"  |
 |   C.-K. Skylaris, A. A. Mostofi, P. D. Haynes, C. J. Pickard, |
 |   M. C. Payne.                                                |
 |   Comput. Phys. Commun. 140, pp.315-322 (2001).               |
 |                                                               |
 |  "Accurate ionic forces and geometry optimization in linear-  |
 |   scaling density-functional theory with local orbitals"      |
 |   N. D. M. Hine, M. Robinson, P. D. Haynes, C.-K. Skylaris,   |
 |   M. C. Payne, and A. A. Mostofi.                             |
 |   Phys. Rev. B 83 195102 (2011).                              |
 |                                                               |
 +---------------------------------------------------------------+

Job started: 26-09-2021 08:12 (+0100)
 
Reading parameters from file "18/592nano.dat" ...... done

If your calculation crashes here, before "Checking processes and threads..."
is displayed, then your stack size is insufficient.
If so, use "ulimit -s unlimited" at runtime.
You can disable this check with "check_stack_size F".

Checking processes and threads...
   Determining the default number of threads...
      No default threads set at compilation time: defaulting to 1.
      OpenMP library call suggests 4 threads.
      Hybrid MPI-OpenMP compilation detected.
      Number of MPI processes > 1.
      OMP_NUM_THREADS environment variable present and
      its value matches the one obtained from the OpenMP library call.
      Using this value as default.
      Default threads: 4
      Default applies to threads_max and threads_num_fftboxes.
      Settings in the input file override this default.
   ... done

   Running with 160 MPI processes.
   There are 10 MPI processes running on the same node as the root process.
   Each MPI process is using: 
               1 threads for simulation cell FFTs.
               1 threads for parallel FFT box operations.
               4 threads for loops over batched FFT box operations.
               4 threads in other parallel regions.
... done

Basic input checks...
Resetting ngwf_cg_rotate to TRUE for EDFT calculations
... done

Reading geometry and species blocks from file "18/592nano.dat" ...    
  Number of PPD points along a3 set to 1.  This is 
  the default value, it may have been provided also in the input file.
... done
 Writing xyz coordinates to file "18/592nano.xyz" ... done


--------------------------------------------------------------------------------
---------------------------------- INPUT FILE ----------------------------------
--------------------------------------------------------------------------------

task : singlepoint                                                              
geom_lbfgs T                                                                    
do_properties : true                                                            
dx_format T                                                                     
edft T                                                                          
edft_spin_fix 3                                                                 
output_detail VERBOSE                                                           
timings_level 3                                                                 
write_xyz T                                                                     
edft_update_scheme: pulay_mix                                                   
edft_ham_diis_size: 10                                                          
edft_trial_step: 0.382                                                          
xc_functional OPTPBE                                                            
cutoff_energy 830 eV                                                            
paw T                                                                           
geom_precond_type EXP                                                           
geom_disp_tol 0.06 bohr                                                         
geom_energy_tol 6E-6 hartree                                                    
geom_force_tol 0.012 "ha/bohr"                                                  
geom_max_iter 25                                                                
EDFT_MAXIT 30                                                                   
pdos_max_l = 2                                                                  
dos_smear  0.1 eV                                                               
popn_calculate T                                                                
PDOS_PSEUDOATOMIC T                                                             
PDOS_REDUCE_SWS F                                                               
PDOS_CONSTRUCT_BASIS F                                                          
PDOS_LOWDIN T                                                                   
PDOS_ORTH_ATOM_BLOCKS F                                                         
PDOS_LCAO_OPTIMIZE F                                                            
pdos_optados_output T                                                           
homo_plot 0                                                                     
lumo_plot 0                                                                     
homo_dens_plot -1                                                               
lumo_dens_plot -1                                                               
%BLOCK SPECIES                                                                  
C C 6 4 9.0                                                                     
H H 1 1 9.0                                                                     
Li Li 3 5 9.0                                                                   
%ENDBLOCK SPECIES                                                               
%BLOCK SPECIES_POT                                                              
C "~/pp/paw/c_pbe_abinit.paw"                                                   
H "~/pp/paw/h_pbe_abinit.paw"                                                   
Li "~/pp/paw/li_pbe_abinit.paw"                                                 
%ENDBLOCK SPECIES_POT                                                           
%BLOCK SPECIES_ATOMIC_SET                                                       
C "SOLVE conf=2s2 2p2"                                                          
H "SOLVE conf=1s1"                                                              
Li "SOLVE conf=1s2 2s1 2p0"                                                     
%ENDBLOCK SPECIES_ATOMIC_SET                                                    
%BLOCK SPECIES_LDOS_GROUPS                                                      
C                                                                               
H                                                                               
Li                                                                              
%ENDBLOCK SPECIES_LDOS_GROUPS                                                   
%BLOCK LATTICE_CART                                                             
94.486315650000      0.000000000000       0.000000000000                        
0.000000000000       94.486315650000      0.000000000000                        
0.000000000000       0.000000000000       94.486315650000                       
%ENDBLOCK LATTICE_CART                                                          
%BLOCK POSITIONS_ABS                                                            
C 42.838454 41.221233 31.670615                                                 
C 38.782423 43.533482 31.675062                                                 
C 41.505320 38.885326 31.404020                                                 
C 45.530566 41.234611 31.723053                                                 
C 37.453144 41.196651 31.407611                                                 
C 37.422103 45.854782 31.740929                                                 
C 54.906874 48.294357 31.706384                                                 
C 54.870877 52.960841 31.703033                                                 
C 53.581276 45.953131 31.761618                                                 
C 38.682760 57.520248 31.949536                                                 
C 42.706030 59.879679 31.959475                                                 
C 37.355041 55.182214 31.927660                                                 
C 53.509463 55.281455 31.770501                                                 
C 45.396489 59.896998 31.949798                                                 
C 46.895783 38.911655 31.501474                                                 
C 41.475649 43.542889 31.807395                                                 
C 34.726603 45.844824 31.538591                                                 
C 50.922248 41.263781 31.644456                                                 
C 53.546602 50.617277 31.835933                                                 
C 34.692060 50.503869 31.709322                                                 
C 41.376038 57.538647 32.040115                                                 
C 38.815043 38.877342 31.278671                                                 
C 54.943619 43.627278 31.565672                                                 
C 49.558223 43.589531 31.852598                                                 
C 37.388216 50.517313 31.912680                                                 
C 49.454309 57.589595 31.938998                                                 
C 34.659972 55.165520 31.726222                                                 
C 57.596773 48.317462 31.441925                                                 
C 50.782569 59.936076 31.743715                                                 
C 57.560481 52.979562 31.428978                                                 
C 37.319641 59.848672 31.805615                                                 
C 54.834943 57.628716 31.566078                                                 
C 50.818729 55.266777 31.951342                                                 
C 46.763775 57.573813 32.030775                                                 
C 41.339437 62.205782 31.819986                                                 
C 46.726379 62.241394 31.771711                                                 
C 46.864729 43.570659 31.896920                                                 
C 50.888733 45.928980 31.915512                                                 
C 38.748303 48.193588 31.925403                                                 
C 38.715150 52.856008 32.012119                                                 
C 49.586560 38.931462 31.474548                                                 
C 33.370150 48.166588 31.530275                                                 
C 42.872800 36.570278 31.192446                                                 
C 53.613482 41.290321 31.522638                                                 
C 34.763473 41.194788 31.210680                                                 
C 33.337508 52.828799 31.615297                                                 
C 45.555537 36.584866 31.240560                                                 
C 33.408933 43.506185 31.283798                                                 
C 58.917459 50.659312 31.297442                                                 
C 53.469580 59.947082 31.560178                                                 
C 49.413827 62.254667 31.665195                                                 
C 38.649125 62.185615 31.755420                                                 
C 50.856063 50.597832 32.006152                                                 
C 42.739347 55.214431 32.117826                                                 
C 42.805392 45.879935 31.983565                                                 
C 57.631540 43.660867 31.335526                                                 
C 58.951108 45.993728 31.259722                                                 
C 33.309375 57.493761 31.574822                                                 
C 34.629796 59.824160 31.625799                                                 
C 58.876620 55.324885 31.224016                                                 
C 49.491917 52.922386 32.060976                                                 
C 45.434317 55.230444 32.124331                                                 
C 57.519942 57.635717 31.300922                                                 
C 49.526742 48.253981 32.037725                                                 
C 41.410597 52.872126 32.114792                                                 
C 42.673087 64.542720 31.674143                                                 
C 41.443612 48.205798 32.040300                                                 
C 45.501348 45.894982 32.023708                                                 
C 45.352543 64.558829 31.643023                                                 
C 37.476097 36.528542 30.976803                                                 
C 46.797751 52.905035 32.134614                                                 
C 42.773642 50.546464 32.123812                                                 
C 46.831810 48.236373 32.094620                                                 
C 41.513774 34.229685 30.901385                                                 
C 33.441226 38.832467 30.921434                                                 
C 50.965775 36.594314 31.208392                                                 
C 54.983742 38.946130 31.274510                                                 
C 30.655529 48.159238 31.282633                                                 
C 46.945635 34.258448 30.977869                                                 
C 30.624875 52.809621 31.350125                                                 
C 30.693961 43.513704 31.064860                                                 
C 45.468798 50.562008 32.144679                                                 
C 61.619632 50.679929 30.983286                                                 
C 38.873830 34.252041 30.820621                                                 
C 34.802169 36.574159 30.826080                                                 
C 37.275828 64.525681 31.587944                                                 
C 58.989300 41.309976 31.119676                                                 
C 54.800655 62.312500 31.304992                                                 
C 50.756035 64.614275 31.418473                                                 
C 61.658315 46.035965 30.968895                                                 
C 30.598421 57.459488 31.317997                                                 
C 61.582354 55.324274 30.915231                                                 
C 33.272972 62.176293 31.454566                                                 
C 41.279761 66.877105 31.523134                                                 
C 58.837146 60.008511 31.062367                                                 
C 46.708518 66.911817 31.431222                                                 
C 49.581834 34.302834 30.995071                                                 
C 29.388669 45.799953 31.094176                                                 
C 62.924741 48.347350 30.844995                                                 
C 53.627208 36.661301 31.154827                                                 
C 62.885860 53.032387 30.814789                                                 
C 57.665349 39.034018 31.126828                                                 
C 29.353874 50.477670 31.219882                                                 
C 42.947790 31.926864 30.688811                                                 
C 34.603858 64.454145 31.467240                                                 
C 38.642538 66.825135 31.502988                                                 
C 29.327718 55.156768 31.226519                                                 
C 30.724534 38.890622 30.749278                                                 
C 45.536795 31.942849 30.720902                                                 
C 29.417975 41.120606 30.819442                                                 
C 57.478003 62.264168 31.093079                                                 
C 53.410450 64.583134 31.263343                                                 
C 49.338412 66.897056 31.338728                                                 
H 37.846440 32.450547 30.597547                                                 
H 33.776216 34.771796 30.604169                                                 
C 62.973849 43.659848 30.805508                                                 
C 61.700870 41.407485 30.882664                                                 
C 62.857735 57.723469 30.725753                                                 
C 29.286848 59.841359 31.177604                                                 
C 30.561059 62.091798 31.250984                                                 
C 61.548491 59.952939 30.796261                                                 
C 42.680228 69.206354 31.372303                                                 
C 45.266818 69.221392 31.325154                                                 
H 64.959068 53.046025 30.577596                                                 
H 64.997993 48.363126 30.614194                                                 
H 50.633610 32.510090 30.818749                                                 
H 41.906171 30.133047 30.490216                                                 
H 29.712200 37.080437 30.549637                                                 
H 27.309315 45.789212 30.943338                                                 
H 37.585176 68.617675 31.380673                                                 
H 33.551541 66.249745 31.339579                                                 
H 58.717841 37.240366 30.971006                                                 
H 27.249568 55.146239 31.054934                                                 
H 46.605352 30.161334 30.559565                                                 
H 54.680126 34.869836 30.983463                                                 
H 27.339215 41.125532 30.685557                                                 
H 27.276097 50.467777 31.051747                                                 
H 58.502346 64.073169 30.930570                                                 
H 50.363319 68.706767 31.194226                                                 
H 65.047006 43.694846 30.602770                                                 
H 62.737266 39.606024 30.749707                                                 
H 54.435448 66.391399 31.104186                                                 
H 64.931642 57.727185 30.511345                                                 
H 29.526491 63.896717 31.145760                                                 
H 27.209493 59.809115 31.024444                                                 
H 41.611051 70.991905 31.281692                                                 
H 62.555839 61.770791 30.648744                                                 
H 46.308456 71.020969 31.205839                                                 
C 44.203138 38.816855 37.429173                                                 
C 36.096300 43.493579 37.438238                                                 
C 40.150015 41.161367 37.487851                                                 
C 41.519855 38.836707 37.303341                                                 
C 49.603137 38.830126 37.365111                                                 
C 37.457531 41.178914 37.309678                                                 
C 48.250919 41.163249 37.622324                                                 
C 53.651951 41.186478 37.459240                                                 
C 45.553920 41.152304 37.660529                                                 
C 52.301828 43.520651 37.667658                                                 
C 36.063992 48.168331 37.719778                                                 
C 37.427849 45.829953 37.693997                                                 
C 45.556076 36.481150 37.165210                                                 
C 36.049464 52.837976 37.756214                                                 
C 33.369103 48.168484 37.477246                                                 
C 53.640534 45.873702 37.679400                                                 
C 52.304160 38.846573 37.276231                                                 
C 33.355267 52.838368 37.536776                                                 
C 56.338077 45.905297 37.446867                                                 
C 33.391045 43.488678 37.206453                                                 
C 49.594648 43.505256 37.738578                                                 
C 37.406371 55.172690 37.811532                                                 
C 48.247623 36.481626 37.121488                                                 
C 41.493370 43.495918 37.715087                                                 
C 37.407494 50.504470 37.819171                                                 
C 36.056364 57.514680 37.709844                                                 
C 56.368352 41.215961 37.289040                                                 
C 56.322610 50.588734 37.492646                                                 
C 53.625346 50.561292 37.726032                                                 
C 53.593157 55.219256 37.688025                                                 
C 32.010475 50.506470 37.362185                                                 
C 45.489260 59.873023 37.847023                                                 
C 41.454241 57.512660 37.869179                                                 
C 57.694602 43.564638 37.241035                                                 
C 32.022269 45.810818 37.254735                                                 
C 52.240410 57.576376 37.715733                                                 
C 44.199136 43.489616 37.779686                                                 
C 48.188847 59.892067 37.799080                                                 
C 40.128870 45.828928 37.782975                                                 
C 40.104406 59.845985 37.755288                                                 
C 49.542127 57.557358 37.834894                                                 
C 52.285048 48.208443 37.784122                                                 
C 57.662704 48.248660 37.301237                                                 
C 40.100284 55.178388 37.894138                                                 
C 56.294245 55.242550 37.452819                                                 
C 52.266304 52.889672 37.795976                                                 
C 44.153076 57.530594 37.910933                                                 
C 40.173349 36.487806 36.930048                                                 
C 32.005300 55.187417 37.392669                                                 
C 44.126529 62.204587 37.721636                                                 
C 36.109514 38.830990 36.931514                                                 
C 33.352056 57.506076 37.496904                                                 
C 37.402759 59.837245 37.706208                                                 
C 57.640713 52.939853 37.323821                                                 
C 41.444450 62.185725 37.657201                                                 
C 48.241954 45.843012 37.842883                                                 
C 40.112783 50.505659 37.887816                                                 
C 48.204747 55.207411 37.907772                                                 
C 44.197582 34.143416 36.834150                                                 
C 53.691639 36.486788 36.933775                                                 
C 53.562569 59.927860 37.495952                                                 
C 49.583240 48.193565 37.862347                                                 
C 49.518112 62.237399 37.593253                                                 
C 41.458028 52.842310 37.921447                                                 
C 45.508065 55.193413 37.937260                                                 
C 49.564059 52.872213 37.888707                                                 
C 45.537293 45.834869 37.854979                                                 
C 41.475090 48.170922 37.868223                                                 
C 32.060310 41.140441 36.861037                                                 
C 37.472942 36.506202 37.035780                                                 
C 49.629334 34.138785 36.790721                                                 
C 41.517454 34.198680 36.821594                                                 
C 57.630675 57.618640 37.242039                                                 
C 57.737523 38.869436 37.016797                                                 
C 33.454097 38.848600 36.781265                                                 
C 45.466073 64.558790 37.547231                                                 
C 44.160177 52.851677 37.936084                                                 
C 48.224205 50.529411 37.903630                                                 
C 29.273783 50.501995 37.029420                                                 
C 44.175404 48.173159 37.888078                                                 
C 60.382902 48.275725 36.925307                                                 
C 52.198710 62.261865 37.402129                                                 
C 45.518694 50.518813 37.918845                                                 
C 60.410746 43.610742 36.935440                                                 
C 29.298797 45.817383 37.000075                                                 
C 56.275614 59.946301 37.269213                                                 
C 56.377458 36.546829 36.886280                                                 
C 29.306074 55.183521 37.035901                                                 
C 48.153114 64.575362 37.463270                                                 
C 60.354549 52.973564 36.928809                                                 
C 52.315148 34.188608 36.793887                                                 
C 36.031016 62.199943 37.588767                                                 
C 32.005734 59.860461 37.274046                                                 
C 40.048303 64.542142 37.457563                                                 
C 45.585255 31.856116 36.496467                                                 
C 27.982935 52.847709 36.924273                                                 
C 61.693921 45.963421 36.859539                                                 
C 27.982898 48.149753 36.949030                                                 
C 61.680935 50.635834 36.969505                                                 
C 48.227650 31.840664 36.555065                                                 
C 29.367964 41.181848 36.728538                                                 
C 33.360174 62.153586 37.409671                                                 
C 60.430897 38.968240 36.880629                                                 
C 37.387808 64.489667 37.542809                                                 
C 60.336075 57.639999 36.906348                                                 
H 36.481246 34.758604 36.456234                                                 
H 40.480651 32.420633 36.483434                                                 
C 61.725020 41.262905 36.782871                                                 
C 44.071049 66.900077 37.422814                                                 
H 32.443843 37.073174 36.342909                                                 
C 61.645509 55.312453 36.769079                                                 
C 28.027266 43.434270 36.865610                                                 
C 41.409186 66.851348 37.444333                                                 
H 57.416275 34.791835 36.452432                                                 
C 28.007508 57.547750 36.978520                                                 
C 29.308217 59.805193 37.100328                                                 
H 53.350331 32.402507 36.522956                                                 
C 53.535560 64.645320 37.059973                                                 
H 44.534683 30.084512 36.197939                                                 
H 25.935914 52.859148 36.523507                                                 
C 57.599458 62.328792 36.968144                                                 
C 49.508833 66.932851 37.208371                                                 
H 63.757527 45.971287 36.565513                                                 
H 28.361023 39.373253 36.508765                                                 
H 25.916627 48.134601 36.689024                                                 
H 63.714755 50.632982 36.477664                                                 
H 49.276955 30.065954 36.262842                                                 
H 61.482985 37.178917 36.709376                                                 
H 32.350979 63.959328 37.155639                                                 
H 36.342223 66.281599 37.341331                                                 
H 63.793772 41.293218 36.561136                                                 
H 63.681476 55.321058 36.277702                                                 
H 25.947677 43.420146 36.739915                                                 
H 25.937307 57.546970 36.733012                                                 
C 61.614014 60.001681 36.702910                                                 
H 40.356928 68.639515 37.252077                                                 
C 45.461523 69.219285 37.265426                                                 
H 28.283310 61.613368 36.958671                                                 
C 52.157613 66.917455 37.050625                                                 
C 56.220100 64.615824 36.909866                                                 
C 60.300033 62.276945 36.775292                                                 
C 48.078733 69.237386 37.156108                                                 
H 63.681828 59.996188 36.466329                                                 
H 44.391453 71.002388 37.195313                                                 
H 53.172361 68.721905 36.813272                                                 
H 57.234191 66.409114 36.607873                                                 
H 61.313617 64.082004 36.565567                                                 
H 49.108216 71.039719 36.991343                                                 
H 28.973584 37.775583 44.395431                                                 
H 40.945221 30.263045 44.661276                                                 
H 32.956815 35.258740 44.682036                                                 
H 36.955279 32.742841 44.649146                                                 
H 45.665928 30.111348 44.595034                                                 
H 26.795326 41.952353 44.535742                                                 
C 42.046017 32.019191 44.449489                                                 
C 30.086620 39.532755 44.278810                                                 
H 62.181212 38.882470 44.783830                                                 
C 34.058527 36.989085 44.307349                                                 
C 38.043968 34.494159 44.349521                                                 
C 44.671232 31.933038 44.373356                                                 
H 49.807311 32.314371 44.470165                                                 
H 64.721132 42.856575 44.538709                                                 
C 28.867180 41.862818 44.373506                                                 
H 65.264153 57.012929 44.430238                                                 
H 26.984506 46.638236 44.626071                                                 
H 27.516614 60.622659 44.815516                                                 
H 53.909416 34.523760 44.596276                                                 
H 58.022898 36.715736 44.858564                                                 
H 30.033217 64.620627 45.015683                                                 
H 27.179211 51.296824 44.680256                                                 
H 65.183474 52.247476 44.086420                                                 
H 42.430294 71.151416 45.065044                                                 
H 63.004295 61.141251 44.651437                                                 
H 27.361045 55.958136 44.829514                                                 
H 64.940409 47.515870 44.360193                                                 
C 32.777316 39.353971 44.186042                                                 
C 40.731911 34.363388 44.364472                                                 
H 47.123076 70.989974 45.016093                                                 
C 36.740177 36.837707 44.237393                                                 
H 38.293512 68.954410 45.161143                                                 
C 61.230551 40.719065 44.549877                                                 
C 62.643557 42.934286 44.419916                                                 
H 34.188001 66.796777 45.117141                                                 
C 48.834243 34.127293 44.106093                                                 
C 63.178782 57.057090 44.338766                                                 
C 29.052379 46.561094 44.372184                                                 
H 59.026568 63.604534 44.626376                                                 
C 29.593462 60.564956 44.694391                                                 
C 46.138586 34.190485 44.213906                                                 
H 51.103146 68.520023 44.793290                                                 
H 55.056664 66.044227 44.779406                                                 
C 30.260078 44.169511 44.293974                                                 
C 30.988741 62.784734 44.799864                                                 
C 52.972297 36.325703 44.097381                                                 
C 61.927151 59.370240 44.437533                                                 
C 57.071617 38.527137 44.433720                                                 
C 43.416760 69.325796 44.888894                                                 
C 29.227093 51.224753 44.261995                                                 
C 63.088742 52.318727 44.087632                                                 
C 29.416856 55.889318 44.454194                                                 
C 62.860853 47.623041 44.251937                                                 
C 46.015259 69.233415 44.856686                                                 
C 50.270916 36.382452 44.147824                                                 
C 58.539795 40.773326 44.410289                                                 
C 39.265037 67.131128 44.897698                                                 
C 54.410824 38.598802 44.271377                                                 
C 30.445214 48.826411 44.335549                                                 
C 61.447401 45.336896 44.288167                                                 
C 35.137580 64.964376 44.837363                                                 
C 42.175228 36.666639 44.063557                                                 
C 61.822636 54.752054 44.190031                                                 
C 34.221094 41.655596 43.973861                                                 
C 30.803350 58.165552 44.458020                                                 
C 45.396617 50.596078 43.600872                                                 
C 30.634294 53.510431 44.340312                                                 
C 38.191590 39.157590 43.919605                                                 
C 61.674940 50.005260 44.161720                                                 
C 46.834189 52.882856 43.638055                                                 
C 57.942555 61.851549 44.298816                                                 
C 42.694535 50.690657 43.614308                                                 
C 46.661155 48.211096 43.581673                                                 
C 44.863969 36.580046 44.015014                                                 
C 33.697383 62.746667 44.684204                                                 
C 50.011423 66.758561 44.568656                                                 
C 41.927513 67.068670 44.798511                                                 
C 32.978246 44.043105 44.045783                                                 
C 53.968420 64.297835 44.439546                                                 
C 59.237259 59.503604 44.370058                                                 
C 45.566012 55.261197 43.723112                                                 
C 49.537496 52.793582 43.637794                                                 
C 41.256155 48.403522 43.600215                                                 
C 45.220469 45.924978 43.586429                                                 
C 37.794401 64.895603 44.752821                                                 
C 41.432174 53.074752 43.666215                                                 
C 49.363107 48.124452 43.598038                                                 
C 47.351504 66.872697 44.703438                                                 
C 40.896884 39.057259 43.853020                                                 
C 36.936971 41.542072 43.814210                                                 
C 42.516473 46.018145 43.586667                                                 
C 42.868073 55.357800 43.735705                                                 
C 50.804294 50.414020 43.617371                                                 
C 49.000470 38.785711 43.914288                                                 
C 55.262043 61.966960 44.363372                                                 
C 33.171421 48.716798 44.025218                                                 
C 53.141986 40.996748 43.975275                                                 
C 57.282198 43.166907 44.123578                                                 
C 51.296039 64.435917 44.375949                                                 
C 58.726053 45.441776 44.113823                                                 
C 46.303658 38.871254 43.841924                                                 
C 46.481660 43.541507 43.629980                                                 
C 38.553761 48.504940 43.647352                                                 
C 34.419868 46.337019 43.893266                                                 
C 33.354658 53.400115 44.054075                                                 
C 50.626782 45.741748 43.645099                                                 
C 38.729287 53.180115 43.714831                                                 
C 50.976600 55.082008 43.720080                                                 
C 41.076832 43.730112 43.619961                                                 
C 50.447081 41.069774 43.813278                                                 
C 47.003606 57.546319 43.842925                                                 
C 33.515747 58.065748 44.261024                                                 
C 59.094952 54.827561 44.066637                                                 
C 42.336504 41.341933 43.684026                                                 
C 38.373686 43.827343 43.673994                                                 
C 49.181856 43.457945 43.672209                                                 
C 45.038068 41.260841 43.703152                                                 
C 58.918582 50.130688 44.016146                                                 
C 37.293936 50.897668 43.714494                                                 
C 34.950331 60.335612 44.362015                                                 
C 37.117500 46.221804 43.700407                                                 
C 34.596316 51.008669 43.890493                                                 
C 54.580177 43.268078 43.922288                                                 
C 53.507624 50.327974 43.693423                                                 
C 49.703444 57.457732 43.831548                                                 
C 43.215575 64.679978 44.534767                                                 
C 41.604274 57.741714 43.881577                                                 
C 57.814658 57.186927 44.124795                                                 
C 34.776326 55.670245 44.015788                                                 
C 53.327167 45.655112 43.751429                                                 
C 57.465734 47.846860 43.970207                                                 
C 39.075759 62.487457 44.427678                                                 
C 37.470224 55.565018 43.853943                                                 
C 57.654746 52.519298 43.911802                                                 
C 54.764098 47.943843 43.786716                                                 
C 45.902764 64.580187 44.480846                                                 
C 53.674040 54.993077 43.778691                                                 
C 54.957403 52.614690 43.762324                                                 
C 38.905553 57.847353 43.939732                                                 
C 45.742556 59.914976 44.041714                                                 
C 37.648495 60.219285 44.202509                                                 
C 53.825918 59.648116 44.076199                                                 
C 43.043096 60.012601 44.061947                                                 
C 49.856975 62.122884 44.184283                                                 
C 41.775198 62.384389 44.346738                                                 
C 51.131138 59.749139 43.997983                                                 
C 55.102668 57.285987 43.959630                                                 
C 47.177615 62.203362 44.230228                                                 
H 43.880559 30.068617 50.387498                                                 
H 27.913408 39.783952 50.422842                                                 
H 48.572313 29.952799 50.401563                                                 
H 60.874149 36.686562 50.604399                                                 
H 63.315443 40.711663 50.650495                                                 
H 25.656136 43.904549 50.544346                                                 
H 28.405015 61.935107 50.744670                                                 
H 25.957333 57.921687 50.677596                                                 
H 35.895183 34.932521 50.176582                                                 
H 39.894330 32.504409 50.258480                                                 
H 31.895126 37.368020 50.224411                                                 
H 63.402551 50.023503 51.450735                                                 
H 36.596394 66.422832 50.758156                                                 
H 63.693001 59.461389 50.997552                                                 
H 44.777766 70.920326 51.008512                                                 
H 63.403171 45.369499 50.745324                                                 
H 32.495388 64.169822 50.709820                                                 
H 52.673870 32.202138 50.366951                                                 
H 56.776984 34.449692 50.463175                                                 
H 63.484586 54.804001 51.573184                                                 
H 61.463055 63.576117 50.686670                                                 
H 40.695722 68.671738 50.859513                                                 
H 49.479050 70.831971 50.941549                                                 
H 25.870469 53.252315 50.545699                                                 
H 25.770058 48.572075 50.513956                                                 
C 44.977311 31.835828 50.263519                                                 
C 47.563731 31.771252 50.264008                                                 
C 28.975364 41.572273 50.320830                                                 
C 59.893841 38.519899 50.464473                                                 
C 27.732149 43.841482 50.382187                                                 
C 61.238290 40.737855 50.492562                                                 
C 28.036835 57.894260 50.541953                                                 
C 29.382941 60.103361 50.584344                                                 
H 57.464907 66.000013 50.565088                                                 
H 53.462573 68.417238 50.684057                                                 
C 40.978441 34.280716 50.120690                                                 
C 36.976555 36.709617 50.042110                                                 
C 32.977840 39.144940 50.101749                                                 
C 61.624143 59.516948 50.751595                                                 
C 45.799237 69.114906 50.819950                                                 
C 60.391680 61.793338 50.580044                                                 
C 51.675697 34.026208 50.197379                                                 
C 48.385530 69.066609 50.775248                                                 
C 55.781913 36.274856 50.289637                                                 
C 61.332177 45.428051 50.498710                                                 
C 61.401264 50.110263 50.829291                                                 
C 33.493815 62.349273 50.527913                                                 
C 37.594942 64.604025 50.562644                                                 
C 27.847486 48.526983 50.335795                                                 
C 27.948114 53.209382 50.373185                                                 
C 61.475598 54.820907 50.967264                                                 
C 41.697879 66.854109 50.662577                                                 
C 43.609500 34.186977 50.102318                                                 
C 49.040393 34.055030 50.117507                                                 
C 31.687323 41.440071 50.116295                                                 
C 57.184977 38.515852 50.270435                                                 
C 29.084956 46.199060 50.245410                                                 
C 59.997609 43.149761 50.333243                                                 
C 29.285515 55.482542 50.345509                                                 
C 39.634091 36.602299 49.979902                                                 
C 32.101292 60.117648 50.432718                                                 
C 35.656912 39.019106 49.962307                                                 
C 53.116061 36.284536 50.124322                                                 
C 56.388250 64.222987 50.390020                                                 
C 52.384820 66.641340 50.503817                                                 
C 29.187040 50.841010 50.231956                                                 
C 45.355159 50.493130 49.376848                                                 
C 60.270831 57.171190 50.634588                                                 
C 60.099011 47.793921 50.437404                                                 
C 44.328674 66.833485 50.603393                                                 
C 36.175691 62.359296 50.408223                                                 
C 60.150134 52.480726 50.753440                                                 
C 40.252622 64.598335 50.470951                                                 
C 57.694813 61.920242 50.339463                                                 
C 49.753327 66.725326 50.517988                                                 
C 44.057935 52.856467 49.439192                                                 
C 48.048001 50.431056 49.396976                                                 
C 43.955943 48.188663 49.371043                                                 
C 53.726072 64.326374 50.312471                                                 
C 45.452709 55.159118 49.516589                                                 
C 49.444639 52.736307 49.462448                                                 
C 45.040760 36.495840 49.900144                                                 
C 41.363878 52.916922 49.487894                                                 
C 49.344201 48.064375 49.417995                                                 
C 47.720619 36.430875 49.918674                                                 
C 33.083143 43.772406 49.936125                                                 
C 41.261808 48.249988 49.410784                                                 
C 45.249347 45.825073 49.389673                                                 
C 31.795392 46.122326 50.006588                                                 
C 55.903410 40.902949 50.040458                                                 
C 57.297641 43.197424 50.060003                                                 
C 31.999846 55.445500 50.138233                                                 
C 33.391736 57.735007 50.170429                                                 
C 48.147178 55.098571 49.522520                                                 
C 39.966114 50.613357 49.472847                                                 
C 47.944965 45.761822 49.421267                                                 
C 51.816719 38.666089 49.897144                                                 
C 41.052014 38.920063 49.766014                                                 
C 37.065388 41.343943 49.758382                                                 
C 57.596669 57.237493 50.214101                                                 
C 31.894882 50.785108 49.996640                                                 
C 45.653942 64.467915 50.312670                                                 
C 57.406714 47.866005 50.041154                                                 
C 56.309350 59.591623 50.125354                                                 
C 37.478306 59.985160 50.112476                                                 
C 48.329703 64.415443 50.278077                                                 
C 57.482632 52.553005 50.176205                                                 
C 41.564786 62.227870 50.169619                                                 
C 40.069155 55.277510 49.637555                                                 
C 44.153994 57.519583 49.676234                                                 
C 52.140348 52.672627 49.578622                                                 
C 52.038072 47.999907 49.534513                                                 
C 39.863327 45.945886 49.473502                                                 
C 49.127267 38.727727 49.781984                                                 
C 43.848069 43.521754 49.460629                                                 
C 43.740374 38.854245 49.727802                                                 
C 35.771203 43.701976 49.739408                                                 
C 53.216831 40.962647 49.837731                                                 
C 33.185258 48.427658 49.867820                                                 
C 33.287219 53.087128 49.934962                                                 
C 39.754975 41.277300 49.648922                                                 
C 41.464805 57.576869 49.740692                                                 
C 56.019959 45.568463 49.878848                                                 
C 53.434346 50.306315 49.632613                                                 
C 41.157434 43.584157 49.497410                                                 
C 36.081115 57.691325 49.995041                                                 
C 52.322301 62.006835 50.073461                                                 
C 37.274844 50.672244 49.595239                                                 
C 56.117094 50.240209 49.920918                                                 
C 49.236845 43.396859 49.526631                                                 
C 40.167007 59.936180 49.989951                                                 
C 49.541409 57.403528 49.660845                                                 
C 56.213778 54.916503 50.012884                                                 
C 44.251949 62.175908 50.092549                                                 
C 45.144250 41.157720 49.568146                                                 
C 37.170438 46.009342 49.595645                                                 
C 37.376227 55.331659 49.760787                                                 
C 53.325665 45.634468 49.650626                                                 
C 47.834240 41.094681 49.603386                                                 
C 35.878851 48.368207 49.662393                                                 
C 51.927154 43.333665 49.644407                                                 
C 35.981812 53.032473 49.739887                                                 
C 45.551251 59.819339 49.839325                                                 
C 53.621711 59.654034 49.941660                                                 
C 49.634192 62.065329 50.033291                                                 
C 53.528371 54.979413 49.728172                                                 
C 48.240113 59.762167 49.822644                                                 
C 52.230325 57.343257 49.744033                                                 
Li 59.952112 41.594326 40.578956                                                
Li 31.982768 60.824591 41.174521                                                
Li 30.784628 42.307554 40.604596                                                
Li 47.061338 67.180665 40.745865                                                
Li 59.617902 60.033166 40.415466                                                
Li 55.042924 63.297567 40.617706                                                
Li 40.359785 65.090827 41.314798                                                
Li 39.744811 35.404591 40.633472                                                
Li 28.656697 53.881930 40.870526                                                
Li 30.046004 48.257976 40.505877                                                
Li 50.931572 35.849524 40.353325                                                
Li 62.530757 53.300087 40.264692                                                
Li 63.016462 52.556840 47.973473                                                
Li 60.604113 47.746043 40.753591                                                
Li 34.838601 37.377347 40.398257                                                
Li 46.474517 32.819147 40.360005                                                
Li 55.824358 37.150586 40.805350                                                
Li 35.494320 65.239560 41.243400                                                
%ENDBLOCK POSITIONS_ABS                                                         

--------------------------------------------------------------------------------
-------------------------------- END INPUT FILE --------------------------------
--------------------------------------------------------------------------------


 
<<<<<<<<<<<<<<<<<<<<<<<<<<<<<<<<< Full system >>>>>>>>>>>>>>>>>>>>>>>>>>>>>>>>>>
<<<<<<<<<<<<<<<<<<<<<<<<<<< PAW Dataset information >>>>>>>>>>>>>>>>>>>>>>>>>>>
File: ~/pp/paw/c_pbe_abinit.paw; rc = 1.25 bohr; shape type =  3; rshape = 1.25 bohr;
  Atomic number:  6;  ionic charge:  4.000000
    Partial Wave 1: l = 0
    Partial Wave 2: l = 0
    Partial Wave 3: l = 1
    Partial Wave 4: l = 1
  Core charge supplied for Nonlinear Core Corrections
File: ~/pp/paw/h_pbe_abinit.paw; rc = 0.90 bohr; shape type =  3; rshape = 0.90 bohr;
  Atomic number:  1;  ionic charge:  1.000000
    Partial Wave 1: l = 0
    Partial Wave 2: l = 0
File: ~/pp/paw/li_pbe_abinit.paw; rc = 1.42 bohr; shape type =  3; rshape = 1.42 bohr;
  Atomic number:  3;  ionic charge:  3.000000
    Partial Wave 1: l = 0
    Partial Wave 2: l = 0
    Partial Wave 3: l = 0
    Partial Wave 4: l = 1
    Partial Wave 5: l = 1
<<<<<<<<<<<<<<<<<<<<<<<<<<<<<<<<<<<<<<< >>>>>>>>>>>>>>>>>>>>>>>>>>>>>>>>>>>>>>>

-------------------------- Atom counting information ---------------------------
Symbol    Natoms    Nngwfs    Nprojs
  C        484      1936      3872
  H        108       108       216
  Li        18        90       162
.......   ......    ......    ......
Totals:    610      2134      4250
--------------------------------------------------------------------------------

=============================== PSINC grid sizes ===============================
                      Simulation cell:  189 x 189 x 189
                              FFT-box:  117 x 117 x 117
                                  PPD:    7 x   7 x   1
Grid space d1=  0.499927596032a0 (KE cutoff=  30.39413Eh = 827.06648eV)
Grid space d2=  0.499927596032a0 (KE cutoff=  30.39413Eh = 827.06648eV)
Grid space d3=  0.499927596032a0 (KE cutoff=  30.39413Eh = 827.06648eV)
================================================================================
  
WARNING in cell_grid_distribute:
Average of less than one 23-slab per proc, so workload cannot be
equally balanced between procs.

********************* Fourier parallelisation information **********************
       Coarse grid (whole simulation cell) dimensions:    189   189   189
          Real-space ('12') slabs/proc (min max mean):      1     2     1
         Recip-space ('23') slabs/proc (min max mean):      0     1     0
********************************************************************************

********************* Fourier parallelisation information **********************
       Double grid (whole simulation cell) dimensions:    378   378   378
          Real-space ('12') slabs/proc (min max mean):      2     3     2
         Recip-space ('23') slabs/proc (min max mean):      1     2     1
********************************************************************************

Atom SCF Calculation for C  : Z (AE atom) =   6 : Z (PS atom) =   4
Config String: 2s2 2p2
Orbitals (num,occ):  2     2.00 2.00
Orbitals   (num,l):  2        0    1
Real-space Grid (nr,dr,rmax): 1377    0.0065406977    9.0000000000
Spherical Bessel Basis (nsws,lmax,cutoff):   37    2  183.0099912382
Confining potential (l,width,scale):  0    3.0000000000  100.0000000000
Confining potential (l,width,scale):  1    3.0000000000  100.0000000000
  1         -5.4795186097   -1.3252230651    4.5135247139   -1.6370402178
  2         -5.4480873667   -1.4027986130    4.4305957006   -1.6109824140
  3         -5.4553175168   -1.4212842775    4.4102621601   -1.6059044058
  4         -5.4627851864   -1.4247099971    4.4065125496   -1.6052912254
  5         -5.4662317525   -1.4266823431    4.4043718731   -1.6049357348
  6         -5.4679531179   -1.4277361345    4.4032352159   -1.6047498153
  7         -5.4688370531   -1.4282876632    4.4026436340   -1.6046546171
  8         -5.4692962224   -1.4285743132    4.4023378281   -1.6046060967
  9         -5.4695360875   -1.4287229388    4.4021801230   -1.6045813828
 10         -5.4696617783   -1.4287999625    4.4020988354   -1.6045687883
 11         -5.4697277645   -1.4288398966    4.4020569195   -1.6045623641
 12         -5.4697624500   -1.4288606199    4.4020352864   -1.6045590836
 13         -5.4697806994   -1.4288713865    4.4020241086   -1.6045574064
 14         -5.4697903086   -1.4288769875    4.4020183254   -1.6045565478
 15         -5.4697953717   -1.4288799052    4.4020153292   -1.6045561077
 16         -5.4697980412   -1.4288814272    4.4020137746   -1.6045558818
 17         -5.4697994496   -1.4288822223    4.4020129668   -1.6045557657
 18         -5.4698001930   -1.4288826382    4.4020125465   -1.6045557059
 19         -5.4698005858   -1.4288828561    4.4020123274   -1.6045556751
 20         -5.4698007933   -1.4288829704    4.4020122131   -1.6045556592
 21         -5.4698009031   -1.4288830304    4.4020121533   -1.6045556509
 22         -5.4698009612   -1.4288830620    4.4020121220   -1.6045556467
Atom SCF converged after  22 iterations to a total energy of     -5.46980096

Atom SCF Calculation for H  : Z (AE atom) =   1 : Z (PS atom) =   1
Config String: 1s1
Orbitals (num,occ):  1     1.00
Orbitals   (num,l):  1        0
Real-space Grid (nr,dr,rmax): 1377    0.0065406977    9.0000000000
Spherical Bessel Basis (nsws,lmax,cutoff):   37    1  183.0099912382
Confining potential (l,width,scale):  0    3.0000000000  100.0000000000
  1         -0.3687944832   -0.2607687933    0.2820952946   -0.2613406499
  2         -0.4328656062   -0.2590521405    0.2895573663   -0.2701762133
  3         -0.4633856573   -0.2560091938    0.2934204754   -0.2757429988
  4         -0.4750266404   -0.2549676794    0.2946557510   -0.2779015032
  5         -0.4793045155   -0.2546870695    0.2949704774   -0.2786577123
  6         -0.4808919118   -0.2546234645    0.2950332622   -0.2789201171
  7         -0.4814942533   -0.2546130669    0.2950388368   -0.2790132353
  8         -0.4817280090   -0.2546133926    0.2950352123   -0.2790473458
  9         -0.4818204053   -0.2546148712    0.2950319888   -0.2790602287
 10         -0.4818574273   -0.2546158825    0.2950301416   -0.2790652181
 11         -0.4818724050   -0.2546164247    0.2950292178   -0.2790671871
 12         -0.4818785049   -0.2546166894    0.2950287833   -0.2790679748
 13         -0.4818810009   -0.2546168128    0.2950285855   -0.2790682928
 14         -0.4818820255   -0.2546168689    0.2950284970   -0.2790684221
 15         -0.4818824471   -0.2546168940    0.2950284580   -0.2790684748
 16         -0.4818826210   -0.2546169051    0.2950284408   -0.2790684964
 17         -0.4818826928   -0.2546169100    0.2950284333   -0.2790685053
Atom SCF converged after  17 iterations to a total energy of     -0.48188269

Atom SCF Calculation for Li : Z (AE atom) =   3 : Z (PS atom) =   3
Config String: 1s2 2s1 2p0
Orbitals (num,occ):  3     2.00 1.00 0.00
Orbitals   (num,l):  3        0    0    1
Real-space Grid (nr,dr,rmax): 1377    0.0065406977    9.0000000000
Spherical Bessel Basis (nsws,lmax,cutoff):   37    2  183.0099912382
Confining potential (l,width,scale):  0    3.0000000000  100.0000000000
Confining potential (l,width,scale):  1    3.0000000000  100.0000000000
  1         -6.1314629607   -4.7499359229    2.5388576516   -1.0480231927
  2         -7.0450508208   -4.1702030791    2.9795337774   -1.2623862962
  3         -7.3518474013   -3.9564527259    3.2037296734   -1.3880788964
  4         -7.4613386962   -3.8947565558    3.2914990517   -1.4402825036
  5         -7.5001516047   -3.8789668192    3.3221434609   -1.4602864917
  6         -7.5136113510   -3.8755528126    3.3322769691   -1.4678164580
  7         -7.5181182589   -3.8751724459    3.3354399675   -1.4706394447
  8         -7.5195538340   -3.8753832694    3.3363346353   -1.4716958846
  9         -7.5199777516   -3.8756112412    3.3365363545   -1.4720903919
 10         -7.5200869011   -3.8757624244    3.3365501247   -1.4722372325
 11         -7.5201065703   -3.8758489541    3.3365264569   -1.4722916218
 12         -7.5201049812   -3.8758952022    3.3365040630   -1.4723116262
 13         -7.5201006323   -3.8759190019    3.3364892955   -1.4723189110
 14         -7.5200980758   -3.8759285770    3.3364824548   -1.4723210036
 15         -7.5200963811   -3.8759342877    3.3364781194   -1.4723220111
 16         -7.5200953120   -3.8759376792    3.3364754203   -1.4723224913
 17         -7.5200946593   -3.8759396866    3.3364737619   -1.4723227171
 18         -7.5200942701   -3.8759408718    3.3364727530   -1.4723228213
 19         -7.5200940419   -3.8759415700    3.3364721439   -1.4723228682
 20         -7.5200939099   -3.8759419808    3.3364717784   -1.4723228886
 21         -7.5200938343   -3.8759422222    3.3364715600   -1.4723228969
Atom SCF converged after  21 iterations to a total energy of     -7.52009383

Determining parallel strategy ...
... using space-filling curve
... NGWF load balancing: max     16;  min     12;  average     13
... Projector load balancing: max     32;  min     24;  average     27
... done
Calculating Ewald energy ...
              Ewald: real-space energy =   36660.657298
        Ewald: reciprocal-space energy =   35050.140664
         Ewald: (sum_charge)**2 Energy =    2746.431547
         Ewald: (sum_charge**2) Energy =     247.002906
                          Ewald Energy =   68717.363508
Basis initialisation ...... NGWF spheres initialised
... Projector spheres initialised
... NGWF tight boxes initialised
... Projector tight boxes initialised
... Tight-boxes gathered
... NGWF basis size (local,global):     267219  43073402
... PAW projector initialisation
... done

============================= Charge Augmentation ==============================
                           Aug box size:   13 x  13 x  13
================================================================================

========================== Sparse matrix information ===========================
                        Overlap matrix filling:  38.90%
                        Density kernel filling: 100.00%
              NGWF-Proj overlap matrix filling:  10.95%
                    Aug Overlap matrix filling:  43.31%
                    Hamiltonian matrix filling:  43.31%
                  NGWF diagonal matrix filling:   0.18%
                             KS matrix filling: 100.00% 
                           KSKS matrix filling: 100.00% 
================================================================================

Sparse matrix initialisation ... done
NGWF initialisation ...... done
============ Calculation of NGWF S^-1 using Hotelling algorithm ================ 
         Iteration  |  Frobenius norm and Maximum abs value    (of I-S*S_n^-1)   
               1       0.45874715E+02     0.99627109E+00
               2       0.45570710E+02     0.99256837E+00
               3       0.45007381E+02     0.98524032E+00
               4       0.44030798E+02     0.97087321E+00
               5       0.42510325E+02     0.94317066E+00
               6       0.40444163E+02     0.89119274E+00
               7       0.37917012E+02     0.79807085E+00
               8       0.34978356E+02     0.77823708E+00
               9       0.31847194E+02     0.75532210E+00
              10       0.28823491E+02     0.73313447E+00
              11       0.25662285E+02     0.71121329E+00
              12       0.21699825E+02     0.67247065E+00
              13       0.16505553E+02     0.60497482E+00
              14       0.10409087E+02     0.50693932E+00
              15       0.50267237E+01     0.44414105E+00
              16       0.21533883E+01     0.36037853E+00
              17       0.12162200E+01     0.27912701E+00
              18       0.69587145E+00     0.20094440E+00
              19       0.32364487E+00     0.10902873E+00
              20       0.90553901E-01     0.32607274E-01
              21       0.80200844E-02     0.29197656E-02
              22       0.64289239E-04     0.23410845E-04
              23       0.41331041E-08     0.15050616E-08
              24       0.47358626E-13     0.46629367E-14
================================================================================
Calculating core density ...
================================= Core Density =================================
               Core den box size:   21 x  21 x  21
================================================================================
 ... done
Up spin density kernel initialisation ...... done
Down spin density kernel initialisation ...... done

Writing density kernel to file "18/592nano.dkn" ... done

>>> Optimising kernel for current NGWFs:

--------------------------- Ensemble-DFT optimisation --------------------------
Running ScaLAPACK on  160 processor(s).

--------------------------------------------------------------------------------
  Iter                              Commutator    Free_energy(A=E-TS)     DeltaA
#    0                          0.001001524019   -2958.16712774344296  -2.96E+03

Step                       =       0.381966011250
Energy (E)                 =   -2958.144310117969
Entropy (-TS)              =      -0.022817625474
Free energy (A=E-TS)       =   -2958.167127743443
Est. 0K Energy 0.5*(E+A)   =   -2958.155718930706
Residual Non-orthogonality =       0.000000000000
Residual N_electrons       =       0.000000000000

Spin          Integrated_Ne            Fermi_level     Delta_Fermi_level
   1      1049.000000000000        -0.240462419367             -2.40E-01
   2      1049.000000000000        -0.240462419366             -2.40E-01

                           Spin 1           |                 Spin 2           |
     Orb |    H-eigenvalues     Occupancies |    H-eigenvalues     Occupancies |
       1 |    -1.8840254107    1.0000000000 |    -1.8840254107    1.0000000000 | 
                          ------                             ------
    1044 |    -0.2603566529    0.9981340222 |    -0.2603566529    0.9981340222 | 
    1045 |    -0.2577952556    0.9958200905 |    -0.2577952556    0.9958200905 | 
    1046 |    -0.2574588204    0.9953537566 |    -0.2574588204    0.9953537566 | 
    1047 |    -0.2549881543    0.9899179406 |    -0.2549881543    0.9899179406 | 
    1048 |    -0.2460212731    0.8526259784 |    -0.2460212731    0.8526259784 | 
                  Finite temp. Fermi level   |      Finite temp. Fermi level  
    1049 |    -0.2392954139    0.4089008207 |    -0.2392954139    0.4089008207 | 
                 - Gap at zero temperature - |     - Gap at zero temperature -
    1050 |    -0.2357836319    0.1858137559 |    -0.2357836319    0.1858137559 | 
    1051 |    -0.2356180185    0.1780316028 |    -0.2356180185    0.1780316028 | 
    1052 |    -0.2353563891    0.1662616463 |    -0.2353563891    0.1662616463 | 
    1053 |    -0.2321259651    0.0670793327 |    -0.2321259651    0.0670793327 | 
                          ------                             ------
    2134 |     0.5626432458    0.0000000000 |     0.5626432458    0.0000000000 | 

                            |  Abs_value |  Threshold | Converged
     Delta_Free_energy/atom |   4.85E+00 |   1.00E-06 |        No
     Delta_Energy/atom      |   4.85E+00 |   1.00E-04 |        No
     Delta_Entropy/atom     |   3.74E-05 |   1.00E-04 |       Yes
     Commutator             |   1.00E-03 |   1.00E-05 |        No
     Delta_Fermi_level      |   2.40E-01 |   1.00E-03 |        No

  Line search of the free energy minimum:
  Step_type        Step             Free_energy   Predicted_free_energy
.   Initial    0.000000    -2958.16712774344296

Performing  Pulay mixing of Hamiltonian with coefficients:
                        Spin 1               Spin 2
                1.000000000000       1.000000000000
Lambda-->      14.657723696458      14.657723697087     ... done

.    Trial1    0.381966    -2958.72685849095114

Performing  Pulay mixing of Hamiltonian with coefficients:
                        Spin 1               Spin 2
                1.000000000000       1.000000000000
Lambda-->      14.657723696458      14.657723697087     ... done

.    Trial2    0.618034    -2957.51267643336087

Performing  Pulay mixing of Hamiltonian with coefficients:
                        Spin 1               Spin 2
                1.000000000000       1.000000000000
Lambda-->      14.657723696458      14.657723697087     ... done

. Quadratic    0.259503    -2958.88744921656598    -2958.88722619192686

--------------------------------------------------------------------------------
  Iter                              Commutator    Free_energy(A=E-TS)     DeltaA
#    1                          0.000539657238   -2958.88744921656598  -7.20E-01

Step                       =       0.259503007128
Energy (E)                 =   -2958.865751932405
Entropy (-TS)              =      -0.021697284202
Free energy (A=E-TS)       =   -2958.887449216566
Est. 0K Energy 0.5*(E+A)   =   -2958.876600574486
Residual Non-orthogonality =       0.000000000000
Residual N_electrons       =       0.000000000042

Spin          Integrated_Ne            Fermi_level     Delta_Fermi_level
   1      1049.000000000093        -0.225575126958              1.49E-02
   2      1049.000000000095        -0.225575126965              1.49E-02

                           Spin 1           |                 Spin 2           |
     Orb |    H-eigenvalues     Occupancies |    H-eigenvalues     Occupancies |
       1 |    -1.9426278166    1.0000000000 |    -1.9426278166    1.0000000000 | 
                          ------                             ------
    1045 |    -0.2424403768    0.9951582470 |    -0.2424403768    0.9951582470 | 
    1046 |    -0.2356547374    0.9601852718 |    -0.2356547374    0.9601852718 | 
    1047 |    -0.2348478071    0.9492172475 |    -0.2348478071    0.9492172475 | 
    1048 |    -0.2302121572    0.8121831212 |    -0.2302121572    0.8121831212 | 
    1049 |    -0.2262062954    0.5496625254 |    -0.2262062955    0.5496625254 | 
                 - Gap at zero temperature - |     - Gap at zero temperature -
                  Finite temp. Fermi level   |      Finite temp. Fermi level  
    1050 |    -0.2244739413    0.4139337428 |    -0.2244739413    0.4139337428 | 
    1051 |    -0.2206067223    0.1723735250 |    -0.2206067224    0.1723735250 | 
    1052 |    -0.2171464810    0.0652803234 |    -0.2171464810    0.0652803234 | 
[...]
 C   360 -- Li  607       -0.06     -0.00      5.60978
 H   302 -- Li  595       -0.02     -0.00      5.61201
 Li  597 -- Li  598       -0.10     -0.00      5.62385
 H   273 -- Li  602       -0.02     -0.00      5.62453
 C   232 -- Li  606       -0.04     -0.00      5.63173
 Li  594 -- Li  610       -0.13     -0.00      5.64160
 H   323 -- Li  606       -0.01     -0.00      5.64482
 H   335 -- Li  598       -0.02     -0.00      5.65978
 C   393 -- Li  609       -0.03     -0.00      5.66008
 H   286 -- Li  594       -0.02     -0.00      5.66406
 H   291 -- Li  597       -0.01     -0.00      5.66679
=============================================================


============== Orbital energy and occupancy information for spin 1 =============

      Total number of orbitals:    2134
        Occupancy sum (kernel):    1049.000000014
   Occupancy sum (eigenvalues):    1049.000000014
                 HOMO-LUMO gap:       0.004482611 Eh
                 Mid-gap level:      -0.094810087 Eh

                        Orbital | Energy (Eh) | Occupancy
                            1    -1.879388246   1.0000000
                        .......   ...........   .........
                         1041    -0.128874117   0.9999283
                         1042    -0.123179517   0.9995851
                         1043    -0.119838410   0.9988201
                         1044    -0.116696842   0.9968118
                         1045    -0.115472520   0.9953588
                         1046    -0.112238439   0.9871410
                         1047    -0.106177549   0.9185358
                         1048    -0.104277910   0.8609939
                         1049    -0.098439106   0.4879816
                         1050    -0.097051392   0.3777550
                        ....... -- gap at 0K -- .........
                         1051    -0.092568782   0.1288185
                         1052    -0.091112054   0.0829585
                         1053    -0.089545216   0.0535236
                         1054    -0.088818081   0.0431161
                         1055    -0.085893960   0.0174787
                         1056    -0.085272622   0.0138812
                         1057    -0.084936294   0.0128471
                         1058    -0.084495801   0.0111149
                         1059    -0.083207535   0.0073651
                         1060    -0.080544156   0.0031806
                        .......   ...........   .........
                         2134     0.769736256   0.0000000

================================================================================

============== Orbital energy and occupancy information for spin 2 =============

      Total number of orbitals:    2134
        Occupancy sum (kernel):    1048.999999986
   Occupancy sum (eigenvalues):    1048.999999986
                 HOMO-LUMO gap:       0.001387714 Eh
                 Mid-gap level:      -0.097745249 Eh

                        Orbital | Energy (Eh) | Occupancy
                            1    -1.879388246   1.0000000
                        .......   ...........   .........
                         1040    -0.138906834   0.9999961
                         1041    -0.128874117   0.9999283
                         1042    -0.123179517   0.9995851
                         1043    -0.119838410   0.9988201
                         1044    -0.116696842   0.9968118
                         1045    -0.115472520   0.9953588
                         1046    -0.112238439   0.9871410
                         1047    -0.106177549   0.9185358
                         1048    -0.104277910   0.8609939
                         1049    -0.098439106   0.4879816
                        ....... -- gap at 0K -- .........
                         1050    -0.097051392   0.3777550
                         1051    -0.092568782   0.1288185
                         1052    -0.091112054   0.0829585
                         1053    -0.089545216   0.0535236
                         1054    -0.088818081   0.0431161
                         1055    -0.085893960   0.0174787
                         1056    -0.085272622   0.0138812
                         1057    -0.084936294   0.0128471
                         1058    -0.084495801   0.0111149
                         1059    -0.083207535   0.0073651
                        .......   ...........   .........
                         2134     0.769736256   0.0000000

================================================================================

===================== Writing canonical molecular orbitals =====================
    Spin 1
| Orbital  Energy (eV)  Norm     |
| HOMO     -2.64090276  1.000000 | Writing "18/592nano_HOMO_UP.cube" ... done
Writing "18/592nano_HOMO_UP.dx" ... done
| LUMO     -2.51892472  1.000000 | Writing "18/592nano_LUMO_UP.cube" ... done
Writing "18/592nano_LUMO_UP.dx" ... done
================================================================================

===================== Writing canonical molecular orbitals =====================
    Spin 2
| Orbital  Energy (eV)  Norm     |
| HOMO     -2.67866437  1.000000 | Writing "18/592nano_HOMO_DN.cube" ... done
Writing "18/592nano_HOMO_DN.dx" ... done
| LUMO     -2.64090276  1.000000 | Writing "18/592nano_LUMO_DN.cube" ... done
Writing "18/592nano_LUMO_DN.dx" ... done
================================================================================

================== Local Density of States (LDOS) calculation ==================
Writing "18/592nano_UP_LDOS.txt" ...  done
================================================================================

================== Local Density of States (LDOS) calculation ==================
Writing "18/592nano_DN_LDOS.txt" ...  done
================================================================================
 
=============== Density of States (DOS) calculation for UP spin ================
Writing "18/592nano_UP_DOS.txt" ...  done
================================================================================
 
============== Density of States (DOS) calculation for DOWN spin ===============
Writing "18/592nano_DN_DOS.txt" ...  done
================================================================================
 
Writing bands to file "18/592nano.val_bands" ... done
 
================ Projected Density of States (pDOS) calculation ================
 
Constructing AM resolved functions  ...... done
Writing NGWF plot files in formats: CUBE DX ...  done
 
Performing overlap integrals ...  done
 
Computing pDOS weights ...  done
 
All bands spilling parameter =   3.04 %
Occupancy-weighted spilling parameter =   0.88 %
 
 => Outputting data for OptaDOS <=
 
Writing pDOS weights to file "18/592nano.val_pdos_bin" ... done
 
Writing band gradients to file "18/592nano.val_dome_bin" ... done
 
Writing Castep output cell file to "18/592nano-out.cell" ... done
 
 => Computing Gaussian smeared pDOS for UP spin<= 
Writing "18/592nano_UP_PDOS.txt" ...  done
 
 => Computing Gaussian smeared pDOS for DOWN spin<= 
Writing "18/592nano_DN_PDOS.txt" ...  done
 
 => Computing Occupancy-weighted Gaussian smeared pDOS for UP spin<= 
Writing "18/592nano_occ_UP_PDOS.txt" ...  done
  => Band centres for UP spin channel: 
 S band centre of group 1:  -16.055905 eV
 P band centre of group 1:   -7.901719 eV
  Band centres for UP spin channel done. <= 
  => Integrated number of electrons in each AM band for UP spin channel: 
 S num electrons of group 1:  284.951616
 P num electrons of group 1:  754.832787
  Integrated number of electrons for UP spin channel done. <= 
 
 => Computing Occupancy-weighted Gaussian smeared pDOS for DOWN spin<= 
Writing "18/592nano_occ_DN_PDOS.txt" ...  done
  => Band centres for DOWN spin channel: 
 S band centre of group 1:  -16.055905 eV
 P band centre of group 1:   -7.901719 eV
  Band centres for DOWN spin channel done. <=
  => Integrated number of electrons in each AM band for DOWN spin channel: 
 S num electrons of group 1:  284.951616
 P num electrons of group 1:  754.832787
  Integrated number of electrons for DOWN spin channel done. <=
================================================================================

------------------------------ TIMING INFORMATION ------------------------------
AVERAGE TIME:    7656.751s on    160 proc(s)                                    
TOTAL TIME:      7656.751s on    160 proc(s)                                    
================= AVERAGE TIMINGS FROM ALL PROCS (CUMULATIVE) ==================
|| TAG                                    #calls    cpu time   %total  Gflops ||
|| work_imbalance                       :     1        0.00s   0.000%  ------ ||
|| paw_tcore_density                    :     1        0.01s   0.000%  ------ ||
|| paw_dij_hartree                      :   273        0.01s   0.000%  ------ ||
|| paw_sphere_density_on_grid           :     1        0.01s   0.000%  ------ ||
|| sparse_set_to_garbage                :   300        0.01s   0.000%  ------ ||
|| basis_extract_function_from_box      :   426        0.02s   0.000%  ------ ||
|| ngwfs_initialise_from_radial         :     2        0.04s   0.001%  ------ ||
|| ewald_calculate_energy               :     1        0.12s   0.002%  ------ ||
|| density_init_guess_real              :     1        0.23s   0.003%  ------ ||
|| paw_dataset_init                     :     3        0.36s   0.005%  ------ ||
|| paw_tcore_hartree_on_grid            :     1        0.40s   0.005%  ------ ||
|| pseudo_make_structure_factor         :     1        0.48s   0.006%  ------ ||
|| sparse_init                          :     1        0.91s   0.012%  ------ ||
|| dense_normal_eigensolve              :     1        0.92s   0.012%  ------ ||
|| restart_kernel_write                 :    17        1.61s   0.021%  ------ ||
|| augmentation_screen_dij              :   189        2.34s   0.031%  ------ ||
|| paw_species_calc_proj_prec_mat       :     1        2.34s   0.031%  ------ ||
|| sparse_embed_hotelling_invert_embed  :    34        6.07s   0.079%  ------ ||
|| sw_init                              :     1        6.98s   0.091%  ------ ||
|| hartree_on_grid                      :   182        9.83s   0.128%  ------ ||
|| ngwf_gradient_coeffs                 :    16        9.85s   0.129%  ------ ||
|| basis_copy_function_to_box           :  7802       10.15s   0.133%  ------ ||
|| paw_dij_xc                           :   273       11.48s   0.150%  ------ ||
|| fourier_apply_box_pair               :  1091       12.12s   0.158%  2.380k ||
|| augmentation_density_on_grid         :   182       27.43s   0.358%  ------ ||
|| projectors_init_fftbox_recip         :    68       28.16s   0.368%  ------ ||
|| aug_nonlocal_mat                     :   257       34.17s   0.446%  ------ ||
|| sparse_trace                         :  7796       37.73s   0.493%  ------ ||
|| integrals_kinetic                    :    34       41.50s   0.542%  ------ ||
|| function_ops_brappd_ketppd           :    70       41.85s   0.547%  ------ ||
|| projectors_func_ovlp_box             :    35       51.53s   0.673%  ------ ||
|| basis_dot_function_with_box          : 2.266M      64.72s   0.845%  ------ ||
|| eigenstates_pdos                     :     1       84.95s   1.109%  ------ ||
|| dense_eigensolve                     :   284       87.66s   1.145%  ------ ||
|| hamiltonian_energy_components        :     4       95.99s   1.254%  ------ ||
|| fourier_apply_cell_forward           :  6698      120.51s   1.574% 193.446 ||
|| fourier_apply_cell_backward          :  7423      134.95s   1.762% 191.456 ||
|| eigenstates_calculate                :     1      171.05s   2.234%  ------ ||
|| cell_grid_deposit_box_real           : 11732      176.56s   2.306%  ------ ||
|| basis_add_function_to_box            : 5.448M     185.72s   2.426%  ------ ||
|| integrals_locpot_mat_els_batch       :   168      188.48s   2.462%  ------ ||
|| restart_ngwfs_tightbox_output        :    15      202.18s   2.641%  ------ ||
|| sparse_product                       : 10973      224.63s   2.934%  ------ ||
|| edft_diag_ngwf_ham                   :   282      321.64s   4.201%  ------ ||
|| density_fftbox_deposit_to_cell       :  5824      326.38s   4.263%  ------ ||
|| xc_energy_potential                  :   181      334.61s   4.370%  ------ ||
|| density_batch_row_sums               :   182      348.08s   4.546%  ------ ||
|| cell_grid_extract_box_real           :  4732      413.38s   5.399%  ------ ||
|| nlxc_vdw_energy                      :   362      454.60s   5.937%  ------ ||
|| density_fftbox_interpolate_multiply  :  5824      511.18s   6.676%  ------ ||
|| edft_apply_smearing_operator         :   141      528.73s   6.905%  ------ ||
|| fourier_apply_box                    : 26443      551.06s   7.197%  4.087k ||
|| potential_apply_to_ngwf_batch        :   168      556.88s   7.273%  ------ ||
|| projectors_gradient_batch            :    16      678.75s   8.865%  ------ ||
|| integrals_locpot_dbl_grid            :   168      751.11s   9.810%  ------ ||
|| projectors_grad_precond_batch        :    16      939.90s  12.275%  ------ ||
|| density_batch_interp_deposit         :   182      999.12s  13.049%  ------ ||
|| properties_calculate                 :     1     1183.48s  15.457%  ------ ||
|| density_on_dbl_grid                  :   182     1377.69s  17.993%  ------ ||
|| hamiltonian_lhxc_calculate           :   176     1738.09s  22.700%  ------ ||
|| ngwf_gradient_build_batch            :    16     1800.08s  23.510%  ------ ||
|| ngwf_gradient_batch                  :    16     1956.90s  25.558%  ------ ||
|| ngwf_gradient_lnv                    :    16     1978.25s  25.837%  ------ ||
|| edft_calculate                       :    16     3023.27s  39.485%  ------ ||
|| ngwf_cg_optimise                     :     1     6452.80s  84.276%  ------ ||
|| total_time                           :     1     7656.75s 100.000%  ------ ||
================================================================================
==================== AVERAGE TIMINGS FROM ALL PROCS (SELF) =====================
++ TAG                                    #calls    cpu time   %total  Gflops ++
++ work_imbalance                       :     1        0.00s   0.000%  ------ ++
++ paw_tcore_density                    :     1        0.01s   0.000%  ------ ++
++ paw_sphere_density_on_grid           :     1        0.01s   0.000%  ------ ++
++ paw_tcore_hartree_on_grid            :     1        0.01s   0.000%  ------ ++
++ paw_dij_hartree                      :   273        0.01s   0.000%  ------ ++
++ sparse_set_to_garbage                :   300        0.01s   0.000%  ------ ++
++ basis_extract_function_from_box      :   426        0.02s   0.000%  ------ ++
++ ngwfs_initialise_from_radial         :     2        0.04s   0.001%  ------ ++
++ sparse_embed_hotelling_invert_embed  :    34        0.07s   0.001%  ------ ++
++ ewald_calculate_energy               :     1        0.12s   0.002%  ------ ++
++ density_init_guess_real              :     1        0.21s   0.003%  ------ ++
++ ngwf_gradient_coeffs                 :    16        0.23s   0.003%  ------ ++
++ paw_dataset_init                     :     3        0.36s   0.005%  ------ ++
++ pseudo_make_structure_factor         :     1        0.48s   0.006%  ------ ++
++ sparse_init                          :     1        0.91s   0.012%  ------ ++
++ dense_normal_eigensolve              :     1        0.92s   0.012%  ------ ++
++ hamiltonian_energy_components        :     4        1.45s   0.019%  ------ ++
++ restart_kernel_write                 :    17        1.61s   0.021%  ------ ++
++ hartree_on_grid                      :   182        1.84s   0.024%  ------ ++
++ paw_species_calc_proj_prec_mat       :     1        1.95s   0.026%  ------ ++
++ augmentation_screen_dij              :   189        1.95s   0.026%  ------ ++
++ main_program_(onetep.F90)            :     1        2.20s   0.029%  ------ ++
++ aug_nonlocal_mat                     :   257        2.75s   0.036%  ------ ++
++ integrals_locpot_dbl_grid            :   168        5.74s   0.075%  ------ ++
++ sw_init                              :     1        6.98s   0.091%  ------ ++
++ augmentation_density_on_grid         :   182        7.96s   0.104%  ------ ++
++ basis_copy_function_to_box           :  7802       10.15s   0.133%  ------ ++
++ paw_dij_xc                           :   273       11.48s   0.150%  ------ ++
++ ngwf_gradient_lnv                    :    16       11.49s   0.150%  ------ ++
++ fourier_apply_box_pair               :  1091       12.12s   0.158%  2.380k ++
++ projectors_func_ovlp_box             :    35       23.12s   0.302%  ------ ++
++ projectors_init_fftbox_recip         :    68       28.16s   0.368%  ------ ++
++ nlxc_vdw_energy                      :   362       30.33s   0.396%  ------ ++
++ density_on_dbl_grid                  :   182       30.50s   0.398%  ------ ++
++ integrals_kinetic                    :    34       30.62s   0.400%  ------ ++
++ sparse_trace                         :  7796       37.73s   0.493%  ------ ++
++ function_ops_brappd_ketppd           :    70       41.85s   0.547%  ------ ++
++ hamiltonian_lhxc_calculate           :   176       42.69s   0.558%  ------ ++
++ edft_calculate                       :    16       46.39s   0.606%  ------ ++
++ xc_energy_potential                  :   181       57.20s   0.747%  ------ ++
++ eigenstates_calculate                :     1       61.67s   0.805%  ------ ++
++ basis_dot_function_with_box          : 2.266M      64.72s   0.845%  ------ ++ (!) overhead: ~   4.6%
++ eigenstates_pdos                     :     1       73.85s   0.965%  ------ ++
++ ngwf_gradient_build_batch            :    16       79.15s   1.034%  ------ ++
++ dense_eigensolve                     :   284       87.66s   1.145%  ------ ++
++ density_batch_interp_deposit         :   182       93.78s   1.225%  ------ ++
++ ngwf_gradient_batch                  :    16       99.81s   1.304%  ------ ++
++ fourier_apply_cell_forward           :  6698      120.51s   1.574% 193.446 ++
++ fourier_apply_cell_backward          :  7423      134.95s   1.762% 191.456 ++
++ integrals_locpot_mat_els_batch       :   168      136.96s   1.789%  ------ ++
++ density_fftbox_deposit_to_cell       :  5824      151.30s   1.976%  ------ ++
++ cell_grid_deposit_box_real           : 11732      176.56s   2.306%  ------ ++
++ basis_add_function_to_box            : 5.448M     185.72s   2.426%  ------ ++ (!) overhead: ~   3.9%
++ edft_apply_smearing_operator         :   141      195.58s   2.554%  ------ ++
++ restart_ngwfs_tightbox_output        :    15      202.17s   2.640%  ------ ++
++ density_fftbox_interpolate_multiply  :  5824      202.95s   2.651%  ------ ++
++ density_batch_row_sums               :   182      222.03s   2.900%  ------ ++
++ sparse_product                       : 10973      224.63s   2.934%  ------ ++
++ edft_diag_ngwf_ham                   :   282      234.63s   3.064%  ------ ++
++ potential_apply_to_ngwf_batch        :   168      304.17s   3.973%  ------ ++
++ cell_grid_extract_box_real           :  4732      413.38s   5.399%  ------ ++
++ fourier_apply_box                    : 26443      551.06s   7.197%  4.087k ++
++ projectors_gradient_batch            :    16      665.96s   8.698%  ------ ++
++ properties_calculate                 :     1      685.85s   8.957%  ------ ++
++ ngwf_cg_optimise                     :     1      828.49s  10.820%  ------ ++
++ projectors_grad_precond_batch        :    16      925.27s  12.084%  ------ ++
================================================================================
(!) WARNING: You're wasting precious cycles calling timer. 
             Each pair of timer_clock calls itself cost   1.32 microseconds!
Overhead of generating timer report: 
- 0 ms averaging over threads,
- 27 ms ensuring consistency across MPI ranks,
- 0 ms printing in order.

Job completed: 26-09-2021 10:20 (+0100)

