 +---------------------------------------------------------------+
 |                                                               |
 |        ####### #     # ####### ####### ####### ######         |
 |        #     # ##    # #          #    #       #     #        |
 |        #     # # #   # #          #    #       #     #        |
 |        #     # #  #  # #####      #    #####   ######         |
 |        #     # #   # # #          #    #       #              |
 |        #     # #    ## #          #    #       #              |
 |        ####### #     # #######    #    ####### #              |
 |                                                               |
 |        Linear-Scaling Ab Initio Total Energy Program          |
 |                                                               |
 |          Release for academic collaborators of ODG            |
 |                                             Version 6.1.3.6   |
 |                                                               |
 +---------------------------------------------------------------+
 |                                                               |
 |  Authors:                                                     |
 |  Jacek Dziedzic, Peter D. Haynes, Nicholas D. M. Hine,        |
 |  Arash A. Mostofi, Mike C. Payne and Chris-Kriton Skylaris    |
 |                                                               |
 |  Contributors:                                                |
 |  J. Aarons, L. Andrinopoulos, P. W. Avraam, R. A. Bell,       |
 |  A. Bhandari, G. A. Bramley, R. J. Charlton, S. J. Clark,     |
 |  R. J. Clements, G. C. Constantinescu, F. Corsetti,           |
 |  N. Corsini, O. Dieguez, S. M. M. Dubois, K. K. B. Duff,      |
 |  J. M. Escartin, A. Greco, H. Helal, Q. O. Hill, L. P. Lee,   |
 |  J.-H. Li, E. B. Linscott, G. Moynihan, D. D. O`Regan,        |
 |  O. K. Okan, M. J. S. Phipps, C. J. Pickard,                  |
 |  J. C. A. Prentice, M. I. J. Probert, L. E. Ratcliff,         |
 |  M. Robinson, A. Ruiz Serrano, J. S. Spencer, E. W. Tait,     |
 |  G. Teobaldi, D. Turban, V. Vitale, K. A. Wilkinson,          |
 |  C. Weber, J. C. Womack, N. Yeung and T. J. Zuehlsdorff       |
 |                                                               |
 |                                   Copyright (c) 2004-2021     |
 |                                                               |
 |  Please cite:                                                 |
 |  "The ONETEP linear-scaling density functional theory program"|
 |   J. Chem. Phys. 152(17) 174111 (2020)                        |
 |                                                               |
 |          in all publications arising from your use of ONETEP. |
 |                                                               |
 +---------------------------------------------------------------+
 |                                                               |
 |   ONETEP is based on developments described in the following  |
 |   publications:                                               |
 |                                                               |
 |  "Nonorthogonal generalized Wannier function pseudopotential  |
 |   plane-wave method".                                         |
 |   C.-K. Skylaris, A. A. Mostofi, P. D. Haynes, O. Dieguez,    |
 |   M. C. Payne.                                                |
 |   Phys. Rev. B 66 035119 (2002).                              |
 |                                                               |
 |  "Preconditioned iterative minimization for linear-scaling    |
 |   electronic structure calculations".                         |
 |   A. A. Mostofi, P. D. Haynes, C.-K. Skylaris, M. C. Payne.   |
 |   J. Chem. Phys. 119(17), pp.8842-8848 (2003).                |
 |                                                               |
 |  "Total-energy calculations on a real space grid with         |
 |   localized functions and a plane-wave basis".                |
 |   A. A. Mostofi, C.-K. Skylaris, P. D. Haynes, M. C. Payne.   |
 |   Comput. Phys. Commun. 147, pp.788-802 (2002).               |
 |                                                               |
 |  "Accurate kinetic energy evaluation in electronic structure  |
 |   calculations with localized functions on real space grids"  |
 |   C.-K. Skylaris, A. A. Mostofi, P. D. Haynes, C. J. Pickard, |
 |   M. C. Payne.                                                |
 |   Comput. Phys. Commun. 140, pp.315-322 (2001).               |
 |                                                               |
 |  "Accurate ionic forces and geometry optimization in linear-  |
 |   scaling density-functional theory with local orbitals"      |
 |   N. D. M. Hine, M. Robinson, P. D. Haynes, C.-K. Skylaris,   |
 |   M. C. Payne, and A. A. Mostofi.                             |
 |   Phys. Rev. B 83 195102 (2011).                              |
 |                                                               |
 +---------------------------------------------------------------+

Job started: 19-09-2021 11:06 (+0100)
 
Reading parameters from file "16/592nano.dat" ...... done

If your calculation crashes here, before "Checking processes and threads..."
is displayed, then your stack size is insufficient.
If so, use "ulimit -s unlimited" at runtime.
You can disable this check with "check_stack_size F".

Checking processes and threads...
   Determining the default number of threads...
      No default threads set at compilation time: defaulting to 1.
      OpenMP library call suggests 4 threads.
      Hybrid MPI-OpenMP compilation detected.
      Number of MPI processes > 1.
      OMP_NUM_THREADS environment variable present and
      its value matches the one obtained from the OpenMP library call.
      Using this value as default.
      Default threads: 4
      Default applies to threads_max and threads_num_fftboxes.
      Settings in the input file override this default.
   ... done

   Running with 160 MPI processes.
   There are 10 MPI processes running on the same node as the root process.
   Each MPI process is using: 
               1 threads for simulation cell FFTs.
               1 threads for parallel FFT box operations.
               4 threads for loops over batched FFT box operations.
               4 threads in other parallel regions.
... done

Basic input checks...
Resetting ngwf_cg_rotate to TRUE for EDFT calculations
... done

Reading geometry and species blocks from file "16/592nano.dat" ...    
  Number of PPD points along a3 set to 1.  This is 
  the default value, it may have been provided also in the input file.
... done
 Writing xyz coordinates to file "16/592nano.xyz" ... done


--------------------------------------------------------------------------------
---------------------------------- INPUT FILE ----------------------------------
--------------------------------------------------------------------------------

task : singlepoint                                                              
geom_lbfgs T                                                                    
do_properties : true                                                            
dx_format T                                                                     
edft T                                                                          
edft_spin_fix 3                                                                 
output_detail VERBOSE                                                           
timings_level 3                                                                 
write_xyz T                                                                     
edft_update_scheme: pulay_mix                                                   
edft_ham_diis_size: 10                                                          
edft_trial_step: 0.382                                                          
xc_functional OPTPBE                                                            
cutoff_energy 830 eV                                                            
paw T                                                                           
geom_precond_type EXP                                                           
geom_disp_tol 0.06 bohr                                                         
geom_energy_tol 6E-6 hartree                                                    
geom_force_tol 0.012 "ha/bohr"                                                  
geom_max_iter 25                                                                
EDFT_MAXIT 30                                                                   
pdos_max_l = 2                                                                  
dos_smear  0.1 eV                                                               
popn_calculate T                                                                
PDOS_PSEUDOATOMIC T                                                             
PDOS_REDUCE_SWS F                                                               
PDOS_CONSTRUCT_BASIS F                                                          
PDOS_LOWDIN T                                                                   
PDOS_ORTH_ATOM_BLOCKS F                                                         
PDOS_LCAO_OPTIMIZE F                                                            
pdos_optados_output T                                                           
homo_plot 0                                                                     
lumo_plot 0                                                                     
homo_dens_plot -1                                                               
lumo_dens_plot -1                                                               
%BLOCK SPECIES                                                                  
C C 6 4 9.0                                                                     
H H 1 1 9.0                                                                     
Li Li 3 5 9.0                                                                   
%ENDBLOCK SPECIES                                                               
%BLOCK SPECIES_POT                                                              
C "~/pp/paw/c_pbe_abinit.paw"                                                   
H "~/pp/paw/h_pbe_abinit.paw"                                                   
Li "~/pp/paw/li_pbe_abinit.paw"                                                 
%ENDBLOCK SPECIES_POT                                                           
%BLOCK SPECIES_ATOMIC_SET                                                       
C "SOLVE conf=2s2 2p2"                                                          
H "SOLVE conf=1s1"                                                              
Li "SOLVE conf=1s2 2s1 2p0"                                                     
%ENDBLOCK SPECIES_ATOMIC_SET                                                    
%BLOCK SPECIES_LDOS_GROUPS                                                      
C                                                                               
H                                                                               
Li                                                                              
%ENDBLOCK SPECIES_LDOS_GROUPS                                                   
%BLOCK LATTICE_CART                                                             
94.486315650000      0.000000000000       0.000000000000                        
0.000000000000       94.486315650000      0.000000000000                        
0.000000000000       0.000000000000       94.486315650000                       
%ENDBLOCK LATTICE_CART                                                          
%BLOCK POSITIONS_ABS                                                            
C 42.883558 41.223856 31.724568                                                 
C 38.821409 43.523616 31.680690                                                 
C 41.556158 38.878024 31.508726                                                 
C 45.574586 41.245744 31.780162                                                 
C 37.497254 41.176822 31.447006                                                 
C 37.454417 45.841499 31.718440                                                 
C 54.932578 48.334716 31.656140                                                 
C 54.893233 53.004066 31.676066                                                 
C 53.612752 45.990193 31.718877                                                 
C 38.694249 57.521410 31.945269                                                 
C 42.718634 59.893286 31.998752                                                 
C 37.368687 55.178952 31.900480                                                 
C 53.532546 55.323812 31.764518                                                 
C 45.412606 59.920212 32.004341                                                 
C 46.943935 38.921325 31.612249                                                 
C 41.514472 43.543798 31.817131                                                 
C 34.758119 45.819570 31.518132                                                 
C 50.962246 41.290585 31.670824                                                 
C 53.572445 50.657463 31.802115                                                 
C 34.713442 50.486032 31.667517                                                 
C 41.389711 57.547644 32.050436                                                 
C 38.866671 38.859829 31.368718                                                 
C 54.975261 43.664815 31.523081                                                 
C 49.595808 43.616324 31.856376                                                 
C 37.410397 50.509658 31.865913                                                 
C 49.476971 57.623003 31.974578                                                 
C 34.671181 55.154078 31.703735                                                 
C 57.622105 48.362217 31.380798                                                 
C 50.801332 59.973685 31.786690                                                 
C 57.582353 53.028309 31.394335                                                 
C 37.324730 59.848138 31.818131                                                 
C 54.853500 57.674934 31.566548                                                 
C 50.842582 55.301583 31.960654                                                 
C 46.784293 57.598294 32.071241                                                 
C 41.346411 62.217854 31.858624                                                 
C 46.740160 62.269231 31.837562                                                 
C 46.902603 43.590218 31.909933                                                 
C 50.920422 45.960721 31.890839                                                 
C 38.776174 48.188256 31.885952                                                 
C 38.734413 52.854578 31.971320                                                 
C 49.633375 38.949409 31.563400                                                 
C 33.396464 48.139681 31.496879                                                 
C 42.929707 36.560005 31.372029                                                 
C 53.651772 41.322162 31.518636                                                 
C 34.806515 41.162530 31.243534                                                 
C 33.353219 52.809677 31.584678                                                 
C 45.609895 36.583077 31.428328                                                 
C 33.444056 43.471044 31.286441                                                 
C 58.940086 50.708298 31.249009                                                 
C 53.488255 59.992472 31.583093                                                 
C 49.429745 62.290904 31.726366                                                 
C 38.652932 62.188848 31.782334                                                 
C 50.882394 50.631329 31.982543                                                 
C 42.757962 55.225393 32.113755                                                 
C 42.839130 45.888115 31.967342                                                 
C 57.662025 43.702439 31.272561                                                 
C 58.975866 46.037788 31.185674                                                 
C 33.312611 57.480376 31.580165                                                 
C 34.630898 59.816314 31.645861                                                 
C 58.894588 55.378438 31.201758                                                 
C 49.517381 52.953847 32.055124                                                 
C 45.455067 55.250429 32.136352                                                 
C 57.538003 57.689228 31.291686                                                 
C 49.556765 48.283858 32.012171                                                 
C 41.431206 52.879378 32.082484                                                 
C 42.678166 64.559927 31.723859                                                 
C 41.471903 48.210458 32.005053                                                 
C 45.535253 45.912189 32.010383                                                 
C 45.361471 64.584704 31.708555                                                 
C 37.533208 36.500692 31.113957                                                 
C 46.821838 52.927642 32.127831                                                 
C 42.799017 50.556685 32.088238                                                 
C 46.861302 48.258414 32.070486                                                 
C 41.577065 34.207397 31.150112                                                 
C 33.488635 38.790905 30.987039                                                 
C 51.014594 36.609218 31.333136                                                 
C 55.022834 38.975414 31.289241                                                 
C 30.680015 48.120291 31.255521                                                 
C 47.004832 34.249804 31.239508                                                 
C 30.637725 52.779120 31.336377                                                 
C 30.727550 43.466054 31.065422                                                 
C 45.494797 50.581058 32.119157                                                 
C 61.644493 50.735318 30.937506                                                 
C 38.938919 34.221668 31.039019                                                 
C 34.862031 36.534357 30.942070                                                 
C 37.271204 64.528260 31.624888                                                 
C 59.020597 41.348124 31.070420                                                 
C 54.814288 62.361889 31.333822                                                 
C 50.767488 64.654197 31.482817                                                 
C 61.684357 46.085690 30.895581                                                 
C 30.596647 57.436611 31.344185                                                 
C 61.601716 55.385083 30.902489                                                 
C 33.263754 62.166439 31.501516                                                 
C 41.279599 66.893980 31.571619                                                 
C 58.850775 60.065523 31.070367                                                 
C 46.714066 66.942134 31.505567                                                 
C 49.639215 34.306546 31.212983                                                 
C 29.418129 45.752492 31.078213                                                 
C 62.948921 48.401446 30.788418                                                 
C 53.672759 36.681461 31.231907                                                 
C 62.907637 53.092160 30.792609                                                 
C 57.701390 39.067742 31.112057                                                 
C 29.374459 50.437716 31.202072                                                 
C 43.015765 31.899264 31.039927                                                 
C 34.596640 64.447154 31.518819                                                 
C 38.638659 66.830195 31.547963                                                 
C 29.334527 55.124087 31.242536                                                 
C 30.772664 38.836818 30.804711                                                 
C 45.605184 31.922023 31.082725                                                 
C 29.455569 41.064842 30.842896                                                 
C 57.491258 62.321345 31.116972                                                 
C 53.422720 64.630980 31.313607                                                 
C 49.346532 66.934792 31.416029                                                 
H 37.912882 32.415199 30.863723                                                 
H 33.839197 34.726168 30.749913                                                 
C 62.998931 43.705582 30.743853                                                 
C 61.730932 41.453340 30.832211                                                 
C 62.871562 57.786138 30.738580                                                 
C 29.278633 59.816004 31.234417                                                 
C 30.548610 62.071214 31.315688                                                 
C 61.561285 60.015961 30.817763                                                 
C 42.678554 69.225841 31.436983                                                 
C 45.266954 69.248866 31.400088                                                 
H 64.981895 53.113295 30.566513                                                 
H 65.023317 48.421634 30.566906                                                 
H 50.690437 32.511293 31.086768                                                 
H 41.974596 30.101419 30.912048                                                 
H 29.767037 37.018849 30.628010                                                 
H 27.338704 45.727252 30.934680                                                 
H 37.579229 68.624328 31.441537                                                 
H 33.543590 66.245074 31.412260                                                 
H 58.754088 37.272746 30.982721                                                 
H 27.255332 55.104730 31.090720                                                 
H 46.676475 30.138451 30.997183                                                 
H 54.723264 34.887161 31.093155                                                 
H 27.376093 41.062415 30.706900                                                 
H 27.296289 50.413539 31.051968                                                 
H 58.507401 64.136561 30.972617                                                 
H 50.364237 68.749415 31.279579                                                 
H 65.072534 43.741676 30.551525                                                 
H 62.771591 39.652035 30.720145                                                 
H 54.436889 66.446381 31.165909                                                 
H 64.946085 57.796595 30.539453                                                 
H 29.507371 63.873998 31.229974                                                 
H 27.199270 59.783361 31.092978                                                 
H 41.604417 71.010894 31.355419                                                 
H 62.565227 61.835664 30.694449                                                 
H 46.305682 71.051714 31.292822                                                 
C 44.277189 38.869548 37.508460                                                 
C 36.126754 43.486028 37.421295                                                 
C 40.196766 41.189334 37.487150                                                 
C 41.591880 38.864158 37.364253                                                 
C 49.668012 38.915063 37.480109                                                 
C 37.503049 41.180534 37.319489                                                 
C 48.293175 41.239984 37.675773                                                 
C 53.677137 41.280803 37.484106                                                 
C 45.595967 41.224372 37.665453                                                 
C 52.317433 43.607412 37.664087                                                 
C 36.066062 48.163676 37.644429                                                 
C 37.446301 45.842098 37.635052                                                 
C 45.647190 36.540155 37.378255                                                 
C 36.043926 52.859356 37.751691                                                 
C 33.372905 48.144806 37.447002                                                 
C 53.636235 45.961077 37.645404                                                 
C 52.361397 38.938820 37.377142                                                 
C 33.334357 52.829235 37.544235                                                 
C 56.331398 45.993351 37.404448                                                 
C 33.417936 43.460217 37.209336                                                 
C 49.619572 43.586334 37.750821                                                 
C 37.396378 55.199460 37.817498                                                 
C 48.326095 36.563474 37.325895                                                 
C 41.522340 43.536111 37.691330                                                 
C 37.410498 50.529539 37.775204                                                 
C 36.019856 57.527731 37.683804                                                 
C 56.374635 41.303729 37.246710                                                 
C 56.308916 50.668718 37.491704                                                 
C 53.613310 50.642362 37.713056                                                 
C 53.582936 55.322736 37.715796                                                 
C 31.998205 50.475244 37.368183                                                 
C 45.466962 59.909761 37.939735                                                 
C 41.416775 57.577907 37.874841                                                 
C 57.690208 43.645825 37.179902                                                 
C 32.038217 45.773914 37.255460                                                 
C 52.229975 57.660245 37.767029                                                 
C 44.226316 43.552666 37.747010                                                 
C 48.180285 59.954197 37.908097                                                 
C 40.145534 45.863212 37.753288                                                 
C 40.048256 59.909264 37.757037                                                 
C 49.536330 57.632963 37.910101                                                 
C 52.281791 48.291885 37.762813                                                 
C 57.648229 48.330432 37.294046                                                 
C 40.093935 55.226039 37.847191                                                 
C 56.274835 55.338947 37.470363                                                 
C 52.254198 52.974036 37.805342                                                 
C 44.110660 57.582778 37.950577                                                 
C 40.265898 36.492703 37.044871                                                 
C 31.961611 55.169089 37.379346                                                 
C 44.100789 62.240735 37.808683                                                 
C 36.174759 38.805091 36.962441                                                 
C 33.295232 57.504672 37.492409                                                 
C 37.349269 59.867784 37.700925                                                 
C 57.616767 53.024512 37.336782                                                 
C 41.409731 62.243402 37.671788                                                 
C 48.255924 45.921595 37.820257                                                 
C 40.115340 50.548047 37.858601                                                 
C 48.186302 55.285652 37.961152                                                 
C 44.314004 34.198585 37.205562                                                 
C 53.742459 36.586582 37.049160                                                 
C 53.543008 60.012434 37.536819                                                 
C 49.582258 48.273211 37.838748                                                 
C 49.489199 62.305795 37.674656                                                 
C 41.456954 52.892277 37.887635                                                 
C 45.486307 55.260831 37.956503                                                 
C 49.549134 52.953766 37.903920                                                 
C 45.556244 45.906863 37.819297                                                 
C 41.483275 48.217961 37.840955                                                 
C 32.105571 41.094359 36.872913                                                 
C 37.558667 36.490927 37.087890                                                 
C 49.693893 34.231067 36.989245                                                 
C 41.659379 34.213816 37.065755                                                 
C 57.603075 57.704839 37.243151                                                 
C 57.739434 38.940221 37.027869                                                 
C 33.515366 38.815146 36.804730                                                 
C 45.425199 64.613138 37.609651                                                 
C 44.155738 52.911331 37.920233                                                 
C 48.219939 50.604075 37.881682                                                 
C 29.263107 50.451198 36.985419                                                 
C 44.185156 48.236509 37.849513                                                 
C 60.354929 48.347787 36.889461                                                 
C 52.174020 62.339538 37.453808                                                 
C 45.520843 50.583701 37.890929                                                 
C 60.399752 43.681875 36.866613                                                 
C 29.321025 45.759838 36.972281                                                 
C 56.250696 60.029683 37.272306                                                 
C 56.403403 36.652736 36.974616                                                 
C 29.255973 55.147841 37.035855                                                 
C 48.118395 64.638040 37.541493                                                 
C 60.324332 53.046625 36.939649                                                 
C 52.362629 34.284570 36.835641                                                 
C 35.959899 62.230428 37.607740                                                 
C 31.924733 59.853910 37.342972                                                 
C 40.002043 64.589490 37.399989                                                 
C 45.714061 31.894745 37.088442                                                 
C 27.952052 52.793622 36.915096                                                 
C 61.667569 46.036358 36.740738                                                 
C 27.990298 48.085425 36.834162                                                 
C 61.670111 50.710212 36.973212                                                 
C 48.305543 31.905728 36.967495                                                 
C 29.408094 41.117561 36.756594                                                 
C 33.280575 62.162386 37.482867                                                 
C 60.445173 39.037290 36.828104                                                 
C 37.324056 64.526620 37.530716                                                 
C 60.306466 57.714906 36.911766                                                 
H 36.578216 34.729370 36.521728                                                 
H 40.646058 32.407018 36.791845                                                 
C 61.717721 41.319203 36.718960                                                 
C 44.030762 66.958320 37.449101                                                 
H 32.509767 37.017559 36.426768                                                 
C 61.607410 55.378181 36.801629                                                 
C 28.059885 43.365457 36.855422                                                 
C 41.362486 66.898676 37.422221                                                 
H 57.455015 34.871704 36.751193                                                 
C 27.935823 57.505854 37.024747                                                 
C 29.219053 59.777089 37.175241                                                 
H 53.402013 32.510515 36.503138                                                 
C 53.502259 64.724571 37.086025                                                 
H 44.656982 30.104277 37.020139                                                 
H 25.897907 52.794077 36.537519                                                 
C 57.567782 62.411105 36.950119                                                 
C 49.469238 66.999386 37.284963                                                 
H 63.717163 46.054948 36.329650                                                 
H 28.406764 39.299855 36.587795                                                 
H 25.929625 48.048151 36.514040                                                 
H 63.651632 50.720459 36.298369                                                 
H 49.363195 30.120181 36.790778                                                 
H 61.487859 37.235770 36.694396                                                 
H 32.262113 63.967334 37.241182                                                 
H 36.261504 66.316793 37.328439                                                 
H 63.787870 41.368223 36.521810                                                 
H 63.637342 55.390788 36.301044                                                 
H 25.982625 43.340648 36.731064                                                 
H 25.861386 57.494245 36.798386                                                 
C 61.580607 60.079918 36.710696                                                 
H 40.297107 68.681352 37.231505                                                 
C 45.417998 69.284954 37.306669                                                 
H 28.184270 61.586183 37.055347                                                 
C 52.119587 66.994763 37.104240                                                 
C 56.188025 64.694528 36.887069                                                 
C 60.270155 62.353915 36.769734                                                 
C 48.035782 69.302352 37.227825                                                 
H 63.649850 60.075917 36.489947                                                 
H 44.351081 71.073272 37.228864                                                 
H 53.128454 68.801411 36.866429                                                 
H 57.193073 66.492309 36.577112                                                 
H 61.285806 64.162072 36.583108                                                 
H 49.072119 71.105229 37.081861                                                 
H 29.110548 37.575309 44.373849                                                 
H 41.178444 30.198405 44.335527                                                 
H 33.123304 35.111179 44.708273                                                 
H 37.167488 32.650363 44.689252                                                 
H 45.870036 30.101120 43.970212                                                 
H 26.881284 41.735915 44.530962                                                 
C 42.266951 31.967707 44.206105                                                 
C 30.204435 39.350995 44.276410                                                 
H 62.261435 38.998649 44.578041                                                 
C 34.208653 36.851623 44.338749                                                 
C 38.237220 34.413754 44.384264                                                 
C 44.859207 31.919351 44.021228                                                 
H 49.948383 32.345800 44.278667                                                 
H 64.743089 43.003754 44.544122                                                 
C 28.957754 41.663776 44.384661                                                 
H 65.187993 57.164720 44.354234                                                 
H 27.033703 46.429484 44.713847                                                 
H 27.397422 60.436793 44.912719                                                 
H 54.055084 34.597742 44.517152                                                 
H 58.147685 36.781015 44.396979                                                 
H 29.869021 64.470519 45.085386                                                 
H 27.178869 51.089558 44.770729                                                 
H 65.131879 52.412670 44.135031                                                 
H 42.253900 71.157973 45.040069                                                 
H 62.901621 61.284841 44.600587                                                 
H 27.299532 55.758567 44.917269                                                 
H 64.908154 47.680417 44.657051                                                 
C 32.905138 39.196053 44.196579                                                 
C 40.918693 34.314761 44.291338                                                 
H 46.960347 71.013546 45.066971                                                 
C 36.894664 36.736131 44.254702                                                 
H 38.114950 68.945087 45.087053                                                 
C 61.295489 40.835218 44.402273                                                 
C 62.667168 43.054363 44.401703                                                 
H 33.986472 66.704271 45.111516                                                 
C 48.963650 34.173653 44.058929                                                 
C 63.097590 57.210179 44.286732                                                 
C 29.097803 46.372990 44.399572                                                 
H 58.906586 63.725442 44.651424                                                 
C 29.476353 60.404643 44.774365                                                 
C 46.310823 34.197318 43.962043                                                 
H 50.955874 68.566872 44.841446                                                 
H 54.922039 66.128963 44.834936                                                 
C 30.326534 43.990706 44.314330                                                 
C 30.845259 62.641572 44.882682                                                 
C 53.068947 36.405140 44.168392                                                 
C 61.836605 59.505255 44.407257                                                 
C 57.167253 38.607994 44.190433                                                 
C 43.251941 69.338570 44.857759                                                 
C 29.200766 51.042469 44.230263                                                 
C 63.039910 52.468845 44.064667                                                 
C 29.355129 55.706309 44.536131                                                 
C 62.838160 47.763949 44.389464                                                 
C 45.858524 69.256855 44.873310                                                 
C 50.392343 36.438690 44.134349                                                 
C 58.586178 40.852692 44.254038                                                 
C 39.095887 67.121937 44.832055                                                 
C 54.510710 38.646964 44.042808                                                 
C 30.464093 48.653432 44.331330                                                 
C 61.447989 45.462232 44.298473                                                 
C 34.974133 64.885540 44.851416                                                 
C 42.329138 36.628404 43.973470                                                 
C 61.762736 54.890476 44.145739                                                 
C 34.317644 41.525901 43.975760                                                 
C 30.714033 58.014568 44.535986                                                 
C 45.390550 50.606163 43.589120                                                 
C 30.593604 53.348729 44.358486                                                 
C 38.318294 39.074936 43.912760                                                 
C 61.640599 50.134525 44.168217                                                 
C 46.808197 52.907332 43.628859                                                 
C 57.841520 61.966862 44.287124                                                 
C 42.687092 50.674238 43.586504                                                 
C 46.677650 48.232833 43.570281                                                 
C 45.012000 36.572513 43.871205                                                 
C 33.560505 62.643118 44.755660                                                 
C 49.868908 66.803776 44.590792                                                 
C 41.771094 67.076351 44.717372                                                 
C 33.042668 43.898424 44.045667                                                 
C 53.844419 64.373422 44.491473                                                 
C 59.148826 59.623257 44.357382                                                 
C 45.517207 55.278257 43.688492                                                 
C 49.510353 52.838172 43.633196                                                 
C 41.273555 48.370889 43.564337                                                 
C 45.259286 45.931953 43.548111                                                 
C 37.639076 64.862163 44.742888                                                 
C 41.400779 53.049977 43.640237                                                 
C 49.379886 48.167324 43.590547                                                 
C 47.205998 66.904504 44.699303                                                 
C 41.017592 39.007865 43.825819                                                 
C 37.032554 41.448981 43.804538                                                 
C 42.559814 45.995495 43.545415                                                 
C 42.815842 55.351478 43.699699                                                 
C 50.798337 50.466685 43.614532                                                 
C 49.099719 38.831514 43.849304                                                 
C 55.161346 62.054398 44.369100                                                 
C 33.186284 48.581356 44.002913                                                 
C 53.223653 41.050748 43.839484                                                 
C 57.326517 43.262770 43.997638                                                 
C 51.173180 64.494002 44.384285                                                 
C 58.747906 45.545108 44.029983                                                 
C 46.419533 38.884407 43.750877                                                 
C 46.543378 43.556524 43.581218                                                 
C 38.568713 48.439233 43.621943                                                 
C 34.459985 46.215414 43.876126                                                 
C 33.312986 53.276959 44.042919                                                 
C 50.663379 45.792527 43.613436                                                 
C 38.695399 53.124970 43.696724                                                 
C 50.928633 55.139481 43.707831                                                 
C 41.143846 43.687609 43.592805                                                 
C 50.526042 41.121025 43.749021                                                 
C 46.931695 57.581596 43.772211                                                 
C 33.430191 57.951623 44.316662                                                 
C 59.037069 54.952635 44.025475                                                 
C 42.430665 41.318475 43.649949                                                 
C 38.441216 43.754173 43.652304                                                 
C 49.245017 43.493058 43.625565                                                 
C 45.128921 41.258715 43.637061                                                 
C 58.897715 50.238821 43.946161                                                 
C 37.282306 50.819285 43.698630                                                 
C 34.845597 60.242652 44.426783                                                 
C 37.157615 46.135741 43.674972                                                 
C 34.582880 50.894360 43.866174                                                 
C 54.629941 43.336881 43.798146                                                 
C 53.502477 50.394042 43.665809                                                 
C 49.637392 57.508342 43.787387                                                 
C 43.076914 64.698609 44.428524                                                 
C 41.527665 57.728831 43.829652                                                 
C 57.750107 57.294643 44.097611                                                 
C 34.712951 55.568044 44.024690                                                 
C 53.357033 45.720426 43.678495                                                 
C 57.480289 47.944989 43.875648                                                 
C 38.953353 62.463605 44.378619                                                 
C 37.412258 55.499899 43.847219                                                 
C 57.622680 52.623334 43.857424                                                 
C 54.777428 48.019089 43.706862                                                 
C 45.769297 64.609667 44.388210                                                 
C 53.629028 55.069468 43.764083                                                 
C 54.927832 52.695544 43.740127                                                 
C 38.825252 57.803396 43.921109                                                 
C 45.646302 59.946355 43.908599                                                 
C 37.546116 60.170368 44.201895                                                 
C 53.744230 59.725556 44.057833                                                 
C 42.942538 60.023817 43.955352                                                 
C 49.751651 62.175535 44.117830                                                 
C 41.653569 62.393622 44.227850                                                 
C 51.045914 59.809903 43.953899                                                 
C 55.034263 57.373524 43.939164                                                 
C 47.066392 62.243279 44.100773                                                 
H 43.916655 30.002309 50.054612                                                 
H 27.917534 39.652500 50.423102                                                 
H 48.617434 29.903254 50.083340                                                 
H 60.893852 36.699467 50.415762                                                 
H 63.321282 40.728092 50.492718                                                 
H 25.643112 43.762190 50.559240                                                 
H 28.332207 61.828598 50.825848                                                 
H 25.899625 57.802300 50.773491                                                 
H 35.927117 34.838067 50.135979                                                 
H 39.930506 32.424547 50.090379                                                 
H 31.920402 37.250063 50.216814                                                 
H 63.392588 50.046019 51.391667                                                 
H 36.524530 66.356055 50.743023                                                 
H 63.671363 59.487721 50.879640                                                 
H 44.711575 70.890286 51.019181                                                 
H 63.402422 45.394179 50.651645                                                 
H 32.423986 64.084593 50.742112                                                 
H 52.699191 32.175332 50.181396                                                 
H 56.795675 34.442899 50.291037                                                 
H 63.478764 54.834275 51.470847                                                 
H 61.423169 63.600605 50.643017                                                 
H 40.628054 68.624841 50.836266                                                 
H 49.412804 70.815931 50.987682                                                 
H 25.826210 53.124880 50.616180                                                 
H 25.740460 48.437598 50.554980                                                 
C 45.013337 31.772283 50.029071                                                 
C 47.601444 31.720852 50.038191                                                 
C 28.972753 41.447814 50.326907                                                 
C 59.906399 38.530141 50.302587                                                 
C 27.720257 43.710141 50.394927                                                 
C 61.244824 40.750395 50.349678                                                 
C 27.978730 57.782916 50.617307                                                 
C 29.318643 60.000477 50.653927                                                 
H 57.414697 66.013514 50.603536                                                 
H 53.406810 68.412531 50.743626                                                 
C 41.008814 34.206831 50.017438                                                 
C 37.001177 36.621821 50.033987                                                 
C 32.991100 39.037106 50.110424                                                 
C 61.598226 59.539477 50.677644                                                 
C 45.739169 69.087291 50.824862                                                 
C 60.358886 61.814691 50.545073                                                 
C 51.700487 34.001636 50.068166                                                 
C 48.325994 69.047656 50.801921                                                 
C 55.797926 36.268125 50.150879                                                 
C 61.330071 45.445022 50.415080                                                 
C 61.386003 50.126895 50.782149                                                 
C 33.429442 62.267263 50.553381                                                 
C 37.531703 64.541573 50.542722                                                 
C 27.817180 48.404058 50.362899                                                 
C 27.902423 53.092692 50.421819                                                 
C 61.460392 54.843728 50.892284                                                 
C 41.637467 66.810416 50.633124                                                 
C 43.640114 34.123718 49.970569                                                 
C 49.064816 34.016970 49.985616                                                 
C 31.686213 41.326956 50.128971                                                 
C 57.197507 38.515175 50.127633                                                 
C 29.062361 46.078612 50.264034                                                 
C 60.000662 43.164872 50.227834                                                 
C 29.232236 55.376865 50.397857                                                 
C 39.656839 36.528606 49.952836                                                 
C 32.036787 60.029331 50.475349                                                 
C 35.669797 38.927850 49.978287                                                 
C 53.131655 36.268991 50.022968                                                 
C 56.348268 64.231656 50.416728                                                 
C 52.336852 66.634333 50.543947                                                 
C 29.147556 50.728695 50.259427                                                 
C 45.334202 50.458083 49.354109                                                 
C 60.251642 57.192180 50.572866                                                 
C 60.091744 47.810811 50.375074                                                 
C 44.272849 66.802312 50.587114                                                 
C 36.112288 62.290859 50.406201                                                 
C 60.136998 52.499673 50.697231                                                 
C 40.192664 64.550484 50.438738                                                 
C 57.660030 61.934365 50.338895                                                 
C 49.702092 66.710865 50.539918                                                 
C 44.030389 52.817460 49.410666                                                 
C 48.029438 50.408857 49.371368                                                 
C 43.938051 48.147556 49.356201                                                 
C 53.683646 64.325152 50.340540                                                 
C 45.423374 55.125552 49.483605                                                 
C 49.423285 52.719394 49.434073                                                 
C 45.060869 36.446172 49.829461                                                 
C 41.332579 52.865351 49.461108                                                 
C 49.330676 48.045934 49.390169                                                 
C 47.739011 36.394627 49.845394                                                 
C 33.072659 43.671227 49.955131                                                 
C 41.241526 48.195995 49.399206                                                 
C 45.238835 45.787716 49.378403                                                 
C 31.775134 46.016299 50.021452                                                 
C 55.909793 40.904399 49.934989                                                 
C 57.298581 43.203741 49.963523                                                 
C 31.947438 55.353151 50.166591                                                 
C 33.335908 57.651220 50.195531                                                 
C 48.120796 55.077956 49.493014                                                 
C 39.937511 50.555382 49.453686                                                 
C 47.935571 45.737373 49.399971                                                 
C 51.826302 38.651247 49.832278                                                 
C 41.064095 38.857352 49.762440                                                 
C 37.067871 41.263545 49.783533                                                 
C 57.571528 57.251606 50.179721                                                 
C 31.857224 50.687327 50.006788                                                 
C 45.605740 64.438715 50.290952                                                 
C 57.397695 47.876131 49.974728                                                 
C 56.281092 59.602633 50.113244                                                 
C 37.423921 59.919571 50.102788                                                 
C 48.284433 64.396521 50.272961                                                 
C 57.465970 52.564964 50.125976                                                 
C 41.513365 62.181035 50.133627                                                 
C 40.029454 55.221831 49.612142                                                 
C 44.117108 57.482776 49.637991                                                 
C 52.121253 52.668263 49.545413                                                 
C 52.026416 47.993888 49.492748                                                 
C 39.849052 45.884158 49.476971                                                 
C 49.137601 38.700810 49.735987                                                 
C 43.843754 43.477184 49.457706                                                 
C 43.752195 38.803902 49.704335                                                 
C 35.763389 43.616458 49.761206                                                 
C 53.220669 40.953601 49.763436                                                 
C 33.157231 48.332497 49.874320                                                 
C 33.243198 52.998686 49.942241                                                 
C 39.758266 41.210996 49.666599                                                 
C 41.423691 57.527548 49.709003                                                 
C 56.015571 45.574486 49.804838                                                 
C 53.418729 50.304672 49.588851                                                 
C 41.151901 43.526965 49.506641                                                 
C 36.029184 57.619571 49.996241                                                 
C 52.286579 62.001776 50.078772                                                 
C 37.243041 50.601502 49.582238                                                 
C 56.104610 50.248731 49.867296                                                 
C 49.233563 43.374988 49.495903                                                 
C 40.117646 59.883177 49.961493                                                 
C 49.512571 57.387948 49.633893                                                 
C 56.193714 54.926763 49.974772                                                 
C 44.205259 62.141435 50.055687                                                 
C 45.147427 41.116460 49.555009                                                 
C 37.153957 45.933447 49.604828                                                 
C 37.332825 55.263917 49.747883                                                 
C 53.318860 45.629996 49.592958                                                 
C 47.837318 41.066016 49.576685                                                 
C 35.852694 48.288178 49.661525                                                 
C 51.925506 43.323455 49.591784                                                 
C 35.940891 52.957557 49.730738                                                 
C 45.512128 59.788320 49.799737                                                 
C 53.590226 59.654489 49.933812                                                 
C 49.595638 62.049647 50.021177                                                 
C 53.505392 54.979445 49.697867                                                 
C 48.205395 59.743029 49.792069                                                 
C 52.203973 57.339527 49.722482                                                 
Li 59.502900 41.222500 40.363911                                                
Li 32.018820 60.749554 41.264273                                                
Li 30.838330 42.176493 40.632252                                                
Li 46.940123 67.255118 40.780245                                                
Li 59.547798 60.123259 40.414201                                                
Li 55.112966 63.531355 40.671194                                                
Li 39.569892 65.368884 41.206068                                                
Li 39.791798 35.353998 40.681221                                                
Li 28.679229 53.849069 40.868244                                                
Li 29.363715 48.339780 40.602051                                                
Li 51.424762 35.243944 40.561063                                                
Li 62.491703 53.390133 40.251998                                                
Li 63.011830 52.549673 47.935539                                                
Li 61.680304 47.812131 40.552743                                                
Li 34.918045 37.346928 40.444067                                                
Li 46.492560 32.244840 40.493520                                                
%ENDBLOCK POSITIONS_ABS                                                         

--------------------------------------------------------------------------------
-------------------------------- END INPUT FILE --------------------------------
--------------------------------------------------------------------------------


 
<<<<<<<<<<<<<<<<<<<<<<<<<<<<<<<<< Full system >>>>>>>>>>>>>>>>>>>>>>>>>>>>>>>>>>
<<<<<<<<<<<<<<<<<<<<<<<<<<< PAW Dataset information >>>>>>>>>>>>>>>>>>>>>>>>>>>
File: ~/pp/paw/c_pbe_abinit.paw; rc = 1.25 bohr; shape type =  3; rshape = 1.25 bohr;
  Atomic number:  6;  ionic charge:  4.000000
    Partial Wave 1: l = 0
    Partial Wave 2: l = 0
    Partial Wave 3: l = 1
    Partial Wave 4: l = 1
  Core charge supplied for Nonlinear Core Corrections
File: ~/pp/paw/h_pbe_abinit.paw; rc = 0.90 bohr; shape type =  3; rshape = 0.90 bohr;
  Atomic number:  1;  ionic charge:  1.000000
    Partial Wave 1: l = 0
    Partial Wave 2: l = 0
File: ~/pp/paw/li_pbe_abinit.paw; rc = 1.42 bohr; shape type =  3; rshape = 1.42 bohr;
  Atomic number:  3;  ionic charge:  3.000000
    Partial Wave 1: l = 0
    Partial Wave 2: l = 0
    Partial Wave 3: l = 0
    Partial Wave 4: l = 1
    Partial Wave 5: l = 1
<<<<<<<<<<<<<<<<<<<<<<<<<<<<<<<<<<<<<<< >>>>>>>>>>>>>>>>>>>>>>>>>>>>>>>>>>>>>>>

-------------------------- Atom counting information ---------------------------
Symbol    Natoms    Nngwfs    Nprojs
  C        484      1936      3872
  H        108       108       216
  Li        16        80       144
.......   ......    ......    ......
Totals:    608      2124      4232
--------------------------------------------------------------------------------

=============================== PSINC grid sizes ===============================
                      Simulation cell:  189 x 189 x 189
                              FFT-box:  117 x 117 x 117
                                  PPD:    7 x   7 x   1
Grid space d1=  0.499927596032a0 (KE cutoff=  30.39413Eh = 827.06648eV)
Grid space d2=  0.499927596032a0 (KE cutoff=  30.39413Eh = 827.06648eV)
Grid space d3=  0.499927596032a0 (KE cutoff=  30.39413Eh = 827.06648eV)
================================================================================
  
WARNING in cell_grid_distribute:
Average of less than one 23-slab per proc, so workload cannot be
equally balanced between procs.

********************* Fourier parallelisation information **********************
       Coarse grid (whole simulation cell) dimensions:    189   189   189
          Real-space ('12') slabs/proc (min max mean):      1     2     1
         Recip-space ('23') slabs/proc (min max mean):      0     1     0
********************************************************************************

********************* Fourier parallelisation information **********************
       Double grid (whole simulation cell) dimensions:    378   378   378
          Real-space ('12') slabs/proc (min max mean):      2     3     2
         Recip-space ('23') slabs/proc (min max mean):      1     2     1
********************************************************************************

Atom SCF Calculation for C  : Z (AE atom) =   6 : Z (PS atom) =   4
Config String: 2s2 2p2
Orbitals (num,occ):  2     2.00 2.00
Orbitals   (num,l):  2        0    1
Real-space Grid (nr,dr,rmax): 1377    0.0065406977    9.0000000000
Spherical Bessel Basis (nsws,lmax,cutoff):   37    2  183.0099912382
Confining potential (l,width,scale):  0    3.0000000000  100.0000000000
Confining potential (l,width,scale):  1    3.0000000000  100.0000000000
  1         -5.4795186097   -1.3252230651    4.5135247139   -1.6370402178
  2         -5.4480873667   -1.4027986130    4.4305957006   -1.6109824140
  3         -5.4553175168   -1.4212842775    4.4102621601   -1.6059044058
  4         -5.4627851864   -1.4247099971    4.4065125496   -1.6052912254
  5         -5.4662317525   -1.4266823431    4.4043718731   -1.6049357348
  6         -5.4679531179   -1.4277361345    4.4032352159   -1.6047498153
  7         -5.4688370531   -1.4282876632    4.4026436340   -1.6046546171
  8         -5.4692962224   -1.4285743132    4.4023378281   -1.6046060967
  9         -5.4695360875   -1.4287229388    4.4021801230   -1.6045813828
 10         -5.4696617783   -1.4287999625    4.4020988354   -1.6045687883
 11         -5.4697277645   -1.4288398966    4.4020569195   -1.6045623641
 12         -5.4697624500   -1.4288606199    4.4020352864   -1.6045590836
 13         -5.4697806994   -1.4288713865    4.4020241086   -1.6045574064
 14         -5.4697903086   -1.4288769875    4.4020183254   -1.6045565478
 15         -5.4697953717   -1.4288799052    4.4020153292   -1.6045561077
 16         -5.4697980412   -1.4288814272    4.4020137746   -1.6045558818
 17         -5.4697994496   -1.4288822223    4.4020129668   -1.6045557657
 18         -5.4698001930   -1.4288826382    4.4020125465   -1.6045557059
 19         -5.4698005858   -1.4288828561    4.4020123274   -1.6045556751
 20         -5.4698007933   -1.4288829704    4.4020122131   -1.6045556592
 21         -5.4698009031   -1.4288830304    4.4020121533   -1.6045556509
 22         -5.4698009612   -1.4288830620    4.4020121220   -1.6045556467
Atom SCF converged after  22 iterations to a total energy of     -5.46980096

Atom SCF Calculation for H  : Z (AE atom) =   1 : Z (PS atom) =   1
Config String: 1s1
Orbitals (num,occ):  1     1.00
Orbitals   (num,l):  1        0
Real-space Grid (nr,dr,rmax): 1377    0.0065406977    9.0000000000
Spherical Bessel Basis (nsws,lmax,cutoff):   37    1  183.0099912382
Confining potential (l,width,scale):  0    3.0000000000  100.0000000000
  1         -0.3687944832   -0.2607687933    0.2820952946   -0.2613406499
  2         -0.4328656062   -0.2590521405    0.2895573663   -0.2701762133
  3         -0.4633856573   -0.2560091938    0.2934204754   -0.2757429988
  4         -0.4750266404   -0.2549676794    0.2946557510   -0.2779015032
  5         -0.4793045155   -0.2546870695    0.2949704774   -0.2786577123
  6         -0.4808919118   -0.2546234645    0.2950332622   -0.2789201171
  7         -0.4814942533   -0.2546130669    0.2950388368   -0.2790132353
  8         -0.4817280090   -0.2546133926    0.2950352123   -0.2790473458
  9         -0.4818204053   -0.2546148712    0.2950319888   -0.2790602287
 10         -0.4818574273   -0.2546158825    0.2950301416   -0.2790652181
 11         -0.4818724050   -0.2546164247    0.2950292178   -0.2790671871
 12         -0.4818785049   -0.2546166894    0.2950287833   -0.2790679748
 13         -0.4818810009   -0.2546168128    0.2950285855   -0.2790682928
 14         -0.4818820255   -0.2546168689    0.2950284970   -0.2790684221
 15         -0.4818824471   -0.2546168940    0.2950284580   -0.2790684748
 16         -0.4818826210   -0.2546169051    0.2950284408   -0.2790684964
 17         -0.4818826928   -0.2546169100    0.2950284333   -0.2790685053
Atom SCF converged after  17 iterations to a total energy of     -0.48188269

Atom SCF Calculation for Li : Z (AE atom) =   3 : Z (PS atom) =   3
Config String: 1s2 2s1 2p0
Orbitals (num,occ):  3     2.00 1.00 0.00
Orbitals   (num,l):  3        0    0    1
Real-space Grid (nr,dr,rmax): 1377    0.0065406977    9.0000000000
Spherical Bessel Basis (nsws,lmax,cutoff):   37    2  183.0099912382
Confining potential (l,width,scale):  0    3.0000000000  100.0000000000
Confining potential (l,width,scale):  1    3.0000000000  100.0000000000
  1         -6.1314629607   -4.7499359229    2.5388576516   -1.0480231927
  2         -7.0450508208   -4.1702030791    2.9795337774   -1.2623862962
  3         -7.3518474013   -3.9564527259    3.2037296734   -1.3880788964
  4         -7.4613386962   -3.8947565558    3.2914990517   -1.4402825036
  5         -7.5001516047   -3.8789668192    3.3221434609   -1.4602864917
  6         -7.5136113510   -3.8755528126    3.3322769691   -1.4678164580
  7         -7.5181182589   -3.8751724459    3.3354399675   -1.4706394447
  8         -7.5195538340   -3.8753832694    3.3363346353   -1.4716958846
  9         -7.5199777516   -3.8756112412    3.3365363545   -1.4720903919
 10         -7.5200869011   -3.8757624244    3.3365501247   -1.4722372325
 11         -7.5201065703   -3.8758489541    3.3365264569   -1.4722916218
 12         -7.5201049812   -3.8758952022    3.3365040630   -1.4723116262
 13         -7.5201006323   -3.8759190019    3.3364892955   -1.4723189110
 14         -7.5200980758   -3.8759285770    3.3364824548   -1.4723210036
 15         -7.5200963811   -3.8759342877    3.3364781194   -1.4723220111
 16         -7.5200953120   -3.8759376792    3.3364754203   -1.4723224913
 17         -7.5200946593   -3.8759396866    3.3364737619   -1.4723227171
 18         -7.5200942701   -3.8759408718    3.3364727530   -1.4723228213
 19         -7.5200940419   -3.8759415700    3.3364721439   -1.4723228682
 20         -7.5200939099   -3.8759419808    3.3364717784   -1.4723228886
 21         -7.5200938343   -3.8759422222    3.3364715600   -1.4723228969
Atom SCF converged after  21 iterations to a total energy of     -7.52009383

Determining parallel strategy ...
... using space-filling curve
... NGWF load balancing: max     16;  min     12;  average     13
... Projector load balancing: max     32;  min     24;  average     26
... done
Calculating Ewald energy ...
              Ewald: real-space energy =   36524.542265
        Ewald: reciprocal-space energy =   34852.369728
         Ewald: (sum_charge)**2 Energy =    2733.736116
         Ewald: (sum_charge**2) Energy =     246.313265
                          Ewald Energy =   68396.862612
Basis initialisation ...... NGWF spheres initialised
... Projector spheres initialised
... NGWF tight boxes initialised
... Projector tight boxes initialised
... Tight-boxes gathered
... NGWF basis size (local,global):     265891  42872676
... PAW projector initialisation
... done

============================= Charge Augmentation ==============================
                           Aug box size:   13 x  13 x  13
================================================================================

========================== Sparse matrix information ===========================
                        Overlap matrix filling:  38.95%
                        Density kernel filling: 100.00%
              NGWF-Proj overlap matrix filling:  10.98%
                    Aug Overlap matrix filling:  43.34%
                    Hamiltonian matrix filling:  43.34%
                  NGWF diagonal matrix filling:   0.18%
                             KS matrix filling: 100.00% 
                           KSKS matrix filling: 100.00% 
================================================================================

Sparse matrix initialisation ... done
NGWF initialisation ...... done
============ Calculation of NGWF S^-1 using Hotelling algorithm ================ 
         Iteration  |  Frobenius norm and Maximum abs value    (of I-S*S_n^-1)   
               1       0.45729608E+02     0.99579800E+00
               2       0.45392510E+02     0.99162983E+00
               3       0.44772397E+02     0.98339093E+00
               4       0.43711188E+02     0.96727775E+00
               5       0.42091336E+02     0.93634776E+00
               6       0.39936866E+02     0.87871905E+00
               7       0.37333092E+02     0.78737906E+00
               8       0.34337652E+02     0.76525319E+00
               9       0.31213404E+02     0.74199296E+00
              10       0.28207545E+02     0.72633884E+00
              11       0.24956722E+02     0.70046142E+00
              12       0.20792028E+02     0.65320642E+00
              13       0.15359333E+02     0.58179719E+00
              14       0.91811379E+01     0.47324085E+00
              15       0.40150496E+01     0.31785618E+00
              16       0.14274006E+01     0.19424600E+00
              17       0.60597785E+00     0.11230166E+00
              18       0.19175329E+00     0.44765886E-01
              19       0.27520223E-01     0.72973431E-02
              20       0.72800013E-03     0.19642050E-03
              21       0.52959414E-06     0.14291631E-06
              22       0.28460862E-12     0.72275519E-13
================================================================================
Calculating core density ...
================================= Core Density =================================
               Core den box size:   21 x  21 x  21
================================================================================
 ... done
Up spin density kernel initialisation ...... done
Down spin density kernel initialisation ...... done

Writing density kernel to file "16/592nano.dkn" ... done

>>> Optimising kernel for current NGWFs:

--------------------------- Ensemble-DFT optimisation --------------------------
Running ScaLAPACK on  160 processor(s).

--------------------------------------------------------------------------------
  Iter                              Commutator    Free_energy(A=E-TS)     DeltaA
#    0                          0.000954956600   -2943.06150275879463  -2.94E+03

Step                       =       0.381966011250
Energy (E)                 =   -2943.043086508061
Entropy (-TS)              =      -0.018416250734
Free energy (A=E-TS)       =   -2943.061502758795
Est. 0K Energy 0.5*(E+A)   =   -2943.052294633428
Residual Non-orthogonality =       0.000000000000
Residual N_electrons       =       0.000000000000

Spin          Integrated_Ne            Fermi_level     Delta_Fermi_level
   1      1046.000000000000        -0.243142867988             -2.43E-01
   2      1046.000000000000        -0.243142867824             -2.43E-01

                           Spin 1           |                 Spin 2           |
     Orb |    H-eigenvalues     Occupancies |    H-eigenvalues     Occupancies |
       1 |    -1.8870678388    1.0000000000 |    -1.8870678390    1.0000000000 | 
                          ------                             ------
    1042 |    -0.2580784576    0.9911310151 |    -0.2580784581    0.9911310169 | 
    1043 |    -0.2567530854    0.9865835564 |    -0.2567530859    0.9865835591 | 
    1044 |    -0.2558165691    0.9820497593 |    -0.2558165689    0.9820497592 | 
    1045 |    -0.2530034169    0.9574549519 |    -0.2530034167    0.9574549516 | 
    1046 |    -0.2438656804    0.5568150897 |    -0.2438656802    0.5568150880 | 
                 - Gap at zero temperature - |     - Gap at zero temperature -
                  Finite temp. Fermi level   |      Finite temp. Fermi level  
    1047 |    -0.2388943590    0.2072514822 |    -0.2388943588    0.2072514811 | 
    1048 |    -0.2356320134    0.0853531717 |    -0.2356320132    0.0853531712 | 
    1049 |    -0.2353874242    0.0795134958 |    -0.2353874240    0.0795134953 | 
    1050 |    -0.2353259196    0.0781035662 |    -0.2353259194    0.0781035657 | 
    1051 |    -0.2316747353    0.0260498008 |    -0.2316747351    0.0260498006 | 
                          ------                             ------
    2124 |     0.5618090737    0.0000000000 |     0.5618090738    0.0000000000 | 

                            |  Abs_value |  Threshold | Converged
     Delta_Free_energy/atom |   4.84E+00 |   1.00E-06 |        No
     Delta_Energy/atom      |   4.84E+00 |   1.00E-04 |        No
     Delta_Entropy/atom     |   3.03E-05 |   1.00E-04 |       Yes
     Commutator             |   9.55E-04 |   1.00E-05 |        No
     Delta_Fermi_level      |   2.43E-01 |   1.00E-03 |        No

  Line search of the free energy minimum:
  Step_type        Step             Free_energy   Predicted_free_energy
.   Initial    0.000000    -2943.06150275879463

Performing  Pulay mixing of Hamiltonian with coefficients:
                        Spin 1               Spin 2
                1.000000000000       1.000000000000
Lambda-->      13.643751616575      13.643751617836     ... done

.    Trial1    0.381966    -2943.63934243272251

Performing  Pulay mixing of Hamiltonian with coefficients:
                        Spin 1               Spin 2
                1.000000000000       1.000000000000
Lambda-->      13.643751616575      13.643751617836     ... done

.    Trial2    0.618034    -2942.71623555179849

Performing  Pulay mixing of Hamiltonian with coefficients:
                        Spin 1               Spin 2
                1.000000000000       1.000000000000
Lambda-->      13.643751616575      13.643751617836     ... done

. Quadratic    0.277184    -2943.70799890902617    -2943.73568325381939

--------------------------------------------------------------------------------
  Iter                              Commutator    Free_energy(A=E-TS)     DeltaA
#    1                          0.000482054240   -2943.70799890902617  -6.46E-01

Step                       =       0.277184261347
Energy (E)                 =   -2943.687974591380
Entropy (-TS)              =      -0.020024317361
Free energy (A=E-TS)       =   -2943.707998909026
Est. 0K Energy 0.5*(E+A)   =   -2943.697986750203
Residual Non-orthogonality =       0.000000000000
Residual N_electrons       =      -0.000000000285

Spin          Integrated_Ne            Fermi_level     Delta_Fermi_level
   1      1045.999999999367        -0.224623962038              1.85E-02
   2      1045.999999999366        -0.224623962038              1.85E-02

                           Spin 1           |                 Spin 2           |
     Orb |    H-eigenvalues     Occupancies |    H-eigenvalues     Occupancies |
       1 |    -1.9412204480    1.0000000000 |    -1.9412204480    1.0000000000 | 
                          ------                             ------
    1042 |    -0.2385384133    0.9877974942 |    -0.2385384133    0.9877974942 | 
    1043 |    -0.2366706202    0.9782048993 |    -0.2366706202    0.9782048993 | 
    1044 |    -0.2349025352    0.9625188976 |    -0.2349025352    0.9625188976 | 
    1045 |    -0.2285562161    0.7758611184 |    -0.2285562161    0.7758611184 | 
    1046 |    -0.2277509310    0.7285777757 |    -0.2277509310    0.7285777757 | 
                 - Gap at zero temperature - |     - Gap at zero temperature -
                  Finite temp. Fermi level   |      Finite temp. Fermi level  
    1047 |    -0.2215570370    0.2751878850 |    -0.2215570370    0.2751878850 | 
    1048 |    -0.2192782089    0.1560317434 |    -0.2192782089    0.1560317434 | 
    1049 |    -0.2156326987    0.0552414133 |    -0.2156326987    0.0552414133 | 
    1050 |    -0.2136127998    0.0299723240 |    -0.2136127998    0.0299723240 | 
    1051 |    -0.2133347074    0.0275219188 |    -0.2133347074    0.0275219188 | 
                          ------                             ------
    2124 |     0.5878145884    0.0000000000 |     0.5878145884    0.0000000000 | 

[...]
 Li  601 -- Li  602       -0.06     -0.00      5.55803
 H   302 -- Li  595       -0.02     -0.00      5.57246
 C   240 -- Li  594       -0.05     -0.00      5.57632
 C   154 -- Li  607       -0.03      0.00      5.58048
 C   333 -- Li  604       -0.05      0.00      5.58918
 H   335 -- Li  597       -0.01     -0.00      5.59830
 Li  597 -- Li  598       -0.10     -0.00      5.59901
 C   303 -- Li  608       -0.04     -0.00      5.63168
 Li  604 -- Li  606       -0.07     -0.00      5.64473
 C   401 -- Li  601       -0.04      0.00      5.64602
 C   171 -- Li  608       -0.05     -0.00      5.66095
=============================================================


============== Orbital energy and occupancy information for spin 1 =============

      Total number of orbitals:    2124
        Occupancy sum (kernel):    1046.000000024
   Occupancy sum (eigenvalues):    1046.000000024
                 HOMO-LUMO gap:       0.005793307 Eh
                 Mid-gap level:      -0.099434134 Eh

                        Orbital | Energy (Eh) | Occupancy
                            1    -1.863213964   1.0000000
                        .......   ...........   .........
                         1037    -0.139525939   0.9999941
                         1038    -0.139369132   0.9999938
                         1039    -0.125400061   0.9996273
                         1040    -0.121982843   0.9989197
                         1041    -0.117147394   0.9950509
                         1042    -0.114429313   0.9882390
                         1043    -0.113739236   0.9854417
                         1044    -0.111618658   0.9719503
                         1045    -0.105228780   0.8189986
                         1046    -0.102330788   0.6460238
                        ....... -- gap at 0K -- .........
                         1047    -0.096537481   0.2176882
                         1048    -0.095967426   0.1870990
                         1049    -0.092704463   0.0779173
                         1050    -0.090170518   0.0351215
                         1051    -0.089360264   0.0275105
                         1052    -0.087063151   0.0135238
                         1053    -0.086118392   0.0100753
                         1054    -0.085369564   0.0077705
                         1055    -0.085075398   0.0071178
                         1056    -0.084459709   0.0059274
                        .......   ...........   .........
                         2124     0.767638860   0.0000000

================================================================================

============== Orbital energy and occupancy information for spin 2 =============

      Total number of orbitals:    2124
        Occupancy sum (kernel):    1045.999999975
   Occupancy sum (eigenvalues):    1045.999999975
                 HOMO-LUMO gap:       0.005793307 Eh
                 Mid-gap level:      -0.099434134 Eh

                        Orbital | Energy (Eh) | Occupancy
                            1    -1.863213964   1.0000000
                        .......   ...........   .........
                         1037    -0.139525939   0.9999941
                         1038    -0.139369132   0.9999938
                         1039    -0.125400061   0.9996273
                         1040    -0.121982843   0.9989197
                         1041    -0.117147394   0.9950509
                         1042    -0.114429313   0.9882390
                         1043    -0.113739236   0.9854417
                         1044    -0.111618658   0.9719503
                         1045    -0.105228780   0.8189986
                         1046    -0.102330788   0.6460237
                        ....... -- gap at 0K -- .........
                         1047    -0.096537481   0.2176882
                         1048    -0.095967426   0.1870989
                         1049    -0.092704463   0.0779173
                         1050    -0.090170518   0.0351215
                         1051    -0.089360264   0.0275105
                         1052    -0.087063151   0.0135238
                         1053    -0.086118392   0.0100753
                         1054    -0.085369564   0.0077705
                         1055    -0.085075398   0.0071178
                         1056    -0.084459709   0.0059274
                        .......   ...........   .........
                         2124     0.767638860   0.0000000

================================================================================

===================== Writing canonical molecular orbitals =====================
    Spin 1
| Orbital  Energy (eV)  Norm     |
| HOMO     -2.78456243  1.000000 | Writing "16/592nano_HOMO_UP.cube" ... done
Writing "16/592nano_HOMO_UP.dx" ... done
| LUMO     -2.62691852  1.000000 | Writing "16/592nano_LUMO_UP.cube" ... done
Writing "16/592nano_LUMO_UP.dx" ... done
================================================================================

===================== Writing canonical molecular orbitals =====================
    Spin 2
| Orbital  Energy (eV)  Norm     |
| HOMO     -2.78456243  1.000000 | Writing "16/592nano_HOMO_DN.cube" ... done
Writing "16/592nano_HOMO_DN.dx" ... done
| LUMO     -2.62691852  1.000000 | Writing "16/592nano_LUMO_DN.cube" ... done
Writing "16/592nano_LUMO_DN.dx" ... done
================================================================================

================== Local Density of States (LDOS) calculation ==================
Writing "16/592nano_UP_LDOS.txt" ...  done
================================================================================

================== Local Density of States (LDOS) calculation ==================
Writing "16/592nano_DN_LDOS.txt" ...  done
================================================================================
 
=============== Density of States (DOS) calculation for UP spin ================
Writing "16/592nano_UP_DOS.txt" ...  done
================================================================================
 
============== Density of States (DOS) calculation for DOWN spin ===============
Writing "16/592nano_DN_DOS.txt" ...  done
================================================================================
 
Writing bands to file "16/592nano.val_bands" ... done
 
================ Projected Density of States (pDOS) calculation ================
 
Constructing AM resolved functions  ...... done
Writing NGWF plot files in formats: CUBE DX ...  done
 
Performing overlap integrals ...  done
 
Computing pDOS weights ...  done
 
All bands spilling parameter =   3.15 %
Occupancy-weighted spilling parameter =   0.88 %
 
 => Outputting data for OptaDOS <=
 
Writing pDOS weights to file "16/592nano.val_pdos_bin" ... done
 
Writing band gradients to file "16/592nano.val_dome_bin" ... done
 
Writing Castep output cell file to "16/592nano-out.cell" ... done
 
 => Computing Gaussian smeared pDOS for UP spin<= 
Writing "16/592nano_UP_PDOS.txt" ...  done
 
 => Computing Gaussian smeared pDOS for DOWN spin<= 
Writing "16/592nano_DN_PDOS.txt" ...  done
 
 => Computing Occupancy-weighted Gaussian smeared pDOS for UP spin<= 
Writing "16/592nano_occ_UP_PDOS.txt" ...  done
  => Band centres for UP spin channel: 
 S band centre of group 1:  -15.689005 eV
 P band centre of group 1:   -7.754770 eV
  Band centres for UP spin channel done. <= 
  => Integrated number of electrons in each AM band for UP spin channel: 
 S num electrons of group 1:  283.063599
 P num electrons of group 1:  753.681268
  Integrated number of electrons for UP spin channel done. <= 
 
 => Computing Occupancy-weighted Gaussian smeared pDOS for DOWN spin<= 
Writing "16/592nano_occ_DN_PDOS.txt" ...  done
  => Band centres for DOWN spin channel: 
 S band centre of group 1:  -15.689005 eV
 P band centre of group 1:   -7.754770 eV
  Band centres for DOWN spin channel done. <=
  => Integrated number of electrons in each AM band for DOWN spin channel: 
 S num electrons of group 1:  283.063599
 P num electrons of group 1:  753.681268
  Integrated number of electrons for DOWN spin channel done. <=
================================================================================

------------------------------ TIMING INFORMATION ------------------------------
AVERAGE TIME:    7265.627s on    160 proc(s)                                    
TOTAL TIME:      7265.628s on    160 proc(s)                                    
================= AVERAGE TIMINGS FROM ALL PROCS (CUMULATIVE) ==================
|| TAG                                    #calls    cpu time   %total  Gflops ||
|| work_imbalance                       :     1        0.00s   0.000%  ------ ||
|| paw_tcore_density                    :     1        0.01s   0.000%  ------ ||
|| paw_dij_hartree                      :   242        0.01s   0.000%  ------ ||
|| sparse_set_to_garbage                :   255        0.01s   0.000%  ------ ||
|| paw_sphere_density_on_grid           :     1        0.02s   0.000%  ------ ||
|| basis_extract_function_from_box      :   371        0.02s   0.000%  ------ ||
|| ngwfs_initialise_from_radial         :     2        0.04s   0.001%  ------ ||
|| ewald_calculate_energy               :     1        0.12s   0.002%  ------ ||
|| density_init_guess_real              :     1        0.28s   0.004%  ------ ||
|| paw_dataset_init                     :     3        0.35s   0.005%  ------ ||
|| paw_tcore_hartree_on_grid            :     1        0.39s   0.005%  ------ ||
|| pseudo_make_structure_factor         :     1        0.48s   0.007%  ------ ||
|| sparse_init                          :     1        1.00s   0.014%  ------ ||
|| dense_normal_eigensolve              :     1        1.07s   0.015%  ------ ||
|| restart_kernel_write                 :    15        1.72s   0.024%  ------ ||
|| paw_species_calc_proj_prec_mat       :     1        2.35s   0.032%  ------ ||
|| augmentation_screen_dij              :   167        3.47s   0.048%  ------ ||
|| sparse_embed_hotelling_invert_embed  :    29        5.55s   0.076%  ------ ||
|| sw_init                              :     1        6.99s   0.096%  ------ ||
|| ngwf_gradient_coeffs                 :    14        7.94s   0.109%  ------ ||
|| basis_copy_function_to_box           :  6863        8.82s   0.121%  ------ ||
|| hartree_on_grid                      :   162        9.33s   0.128%  ------ ||
|| paw_dij_xc                           :   242       10.35s   0.142%  ------ ||
|| fourier_apply_box_pair               :   946       10.48s   0.144%  2.386k ||
|| projectors_init_fftbox_recip         :    59       24.33s   0.335%  ------ ||
|| augmentation_density_on_grid         :   162       28.15s   0.387%  ------ ||
|| aug_nonlocal_mat                     :   228       29.39s   0.404%  ------ ||
|| sparse_trace                         :  7234       34.73s   0.478%  ------ ||
|| integrals_kinetic                    :    29       37.35s   0.514%  ------ ||
|| projectors_func_ovlp_box             :    30       44.40s   0.611%  ------ ||
|| function_ops_brappd_ketppd           :    60       51.03s   0.702%  ------ ||
|| basis_dot_function_with_box          : 1.959M      54.24s   0.747%  ------ ||
|| hamiltonian_energy_components        :     3       77.50s   1.067%  ------ ||
|| eigenstates_pdos                     :     1       88.11s   1.213%  ------ ||
|| dense_eigensolve                     :   256       91.58s   1.260%  ------ ||
|| fourier_apply_cell_forward           :  5958      124.42s   1.712% 166.673 ||
|| fourier_apply_cell_backward          :  6603      144.50s   1.989% 159.048 ||
|| basis_add_function_to_box            : 4.788M     160.79s   2.213%  ------ ||
|| integrals_locpot_mat_els_batch       :   147      170.90s   2.352%  ------ ||
|| cell_grid_deposit_box_real           : 11753      176.06s   2.423%  ------ ||
|| eigenstates_calculate                :     1      181.62s   2.500%  ------ ||
|| restart_ngwfs_tightbox_output        :    13      195.31s   2.688%  ------ ||
|| sparse_product                       : 10357      218.19s   3.003%  ------ ||
|| edft_diag_ngwf_ham                   :   254      306.33s   4.216%  ------ ||
|| density_batch_row_sums               :   162      311.18s   4.283%  ------ ||
|| xc_energy_potential                  :   161      338.42s   4.658%  ------ ||
|| density_fftbox_deposit_to_cell       :  5184      339.54s   4.673%  ------ ||
|| cell_grid_extract_box_real           :  4490      430.89s   5.931%  ------ ||
|| density_fftbox_interpolate_multiply  :  5184      441.23s   6.073%  ------ ||
|| nlxc_vdw_energy                      :   322      460.24s   6.334%  ------ ||
|| fourier_apply_box                    : 23277      474.63s   6.533%  4.177k ||
|| edft_apply_smearing_operator         :   127      489.69s   6.740%  ------ ||
|| potential_apply_to_ngwf_batch        :   147      539.03s   7.419%  ------ ||
|| projectors_gradient_batch            :    14      593.75s   8.172%  ------ ||
|| integrals_locpot_dbl_grid            :   147      714.85s   9.839%  ------ ||
|| projectors_grad_precond_batch        :    14      815.50s  11.224%  ------ ||
|| density_batch_interp_deposit         :   162      953.28s  13.120%  ------ ||
|| properties_calculate                 :     1     1278.00s  17.590%  ------ ||
|| density_on_dbl_grid                  :   162     1291.59s  17.777%  ------ ||
|| ngwf_gradient_build_batch            :    14     1571.97s  21.636%  ------ ||
|| hamiltonian_lhxc_calculate           :   157     1670.37s  22.990%  ------ ||
|| ngwf_gradient_batch                  :    14     1706.84s  23.492%  ------ ||
|| ngwf_gradient_lnv                    :    14     1724.80s  23.739%  ------ ||
|| edft_calculate                       :    14     2894.54s  39.839%  ------ ||
|| ngwf_cg_optimise                     :     1     5965.54s  82.106%  ------ ||
|| total_time                           :     1     7265.63s 100.000%  ------ ||
================================================================================
==================== AVERAGE TIMINGS FROM ALL PROCS (SELF) =====================
++ TAG                                    #calls    cpu time   %total  Gflops ++
++ work_imbalance                       :     1        0.00s   0.000%  ------ ++
++ paw_tcore_density                    :     1        0.01s   0.000%  ------ ++
++ paw_sphere_density_on_grid           :     1        0.01s   0.000%  ------ ++
++ paw_dij_hartree                      :   242        0.01s   0.000%  ------ ++
++ paw_tcore_hartree_on_grid            :     1        0.01s   0.000%  ------ ++
++ sparse_set_to_garbage                :   255        0.01s   0.000%  ------ ++
++ basis_extract_function_from_box      :   371        0.02s   0.000%  ------ ++
++ ngwfs_initialise_from_radial         :     2        0.04s   0.001%  ------ ++
++ sparse_embed_hotelling_invert_embed  :    29        0.04s   0.001%  ------ ++
++ ewald_calculate_energy               :     1        0.12s   0.002%  ------ ++
++ ngwf_gradient_coeffs                 :    14        0.14s   0.002%  ------ ++
++ density_init_guess_real              :     1        0.17s   0.002%  ------ ++
++ paw_dataset_init                     :     3        0.35s   0.005%  ------ ++
++ pseudo_make_structure_factor         :     1        0.48s   0.007%  ------ ++
++ sparse_init                          :     1        1.00s   0.014%  ------ ++
++ dense_normal_eigensolve              :     1        1.07s   0.015%  ------ ++
++ hamiltonian_energy_components        :     3        1.32s   0.018%  ------ ++
++ hartree_on_grid                      :   162        1.50s   0.021%  ------ ++
++ restart_kernel_write                 :    15        1.72s   0.024%  ------ ++
++ aug_nonlocal_mat                     :   228        1.80s   0.025%  ------ ++
++ paw_species_calc_proj_prec_mat       :     1        1.96s   0.027%  ------ ++
++ main_program_(onetep.F90)            :     1        2.27s   0.031%  ------ ++
++ augmentation_screen_dij              :   167        2.73s   0.038%  ------ ++
++ integrals_locpot_dbl_grid            :   147        4.91s   0.068%  ------ ++
++ sw_init                              :     1        6.99s   0.096%  ------ ++
++ augmentation_density_on_grid         :   162        7.93s   0.109%  ------ ++
++ basis_copy_function_to_box           :  6863        8.82s   0.121%  ------ ++
++ ngwf_gradient_lnv                    :    14       10.02s   0.138%  ------ ++
++ paw_dij_xc                           :   242       10.35s   0.142%  ------ ++
++ fourier_apply_box_pair               :   946       10.48s   0.144%  2.386k ++
++ projectors_func_ovlp_box             :    30       20.26s   0.279%  ------ ++
++ nlxc_vdw_energy                      :   322       22.11s   0.304%  ------ ++
++ projectors_init_fftbox_recip         :    59       24.33s   0.335%  ------ ++
++ density_on_dbl_grid                  :   162       27.13s   0.373%  ------ ++
++ integrals_kinetic                    :    29       28.17s   0.388%  ------ ++
++ sparse_trace                         :  7234       34.73s   0.478%  ------ ++
++ edft_calculate                       :    14       40.80s   0.562%  ------ ++
++ hamiltonian_lhxc_calculate           :   157       48.96s   0.674%  ------ ++
++ function_ops_brappd_ketppd           :    60       51.03s   0.702%  ------ ++
++ basis_dot_function_with_box          : 1.959M      54.24s   0.747%  ------ ++ (!) overhead: ~   4.8%
++ xc_energy_potential                  :   161       55.59s   0.765%  ------ ++
++ eigenstates_calculate                :     1       67.77s   0.933%  ------ ++
++ ngwf_gradient_build_batch            :    14       73.49s   1.011%  ------ ++
++ eigenstates_pdos                     :     1       76.16s   1.048%  ------ ++
++ ngwf_gradient_batch                  :    14       85.72s   1.180%  ------ ++
++ dense_eigensolve                     :   256       91.58s   1.260%  ------ ++
++ density_batch_interp_deposit         :   162      113.96s   1.568%  ------ ++
++ fourier_apply_cell_forward           :  5958      124.42s   1.712% 166.673 ++
++ integrals_locpot_mat_els_batch       :   147      127.66s   1.757%  ------ ++
++ fourier_apply_cell_backward          :  6603      144.50s   1.989% 159.048 ++
++ basis_add_function_to_box            : 4.788M     160.79s   2.213%  ------ ++ (!) overhead: ~   4.0%
++ density_fftbox_deposit_to_cell       :  5184      165.00s   2.271%  ------ ++
++ edft_apply_smearing_operator         :   127      172.76s   2.378%  ------ ++
++ density_fftbox_interpolate_multiply  :  5184      174.90s   2.407%  ------ ++
++ cell_grid_deposit_box_real           : 11753      176.06s   2.423%  ------ ++
++ restart_ngwfs_tightbox_output        :    13      195.30s   2.688%  ------ ++
++ density_batch_row_sums               :   162      201.68s   2.776%  ------ ++
++ edft_diag_ngwf_ham                   :   254      215.54s   2.967%  ------ ++
++ sparse_product                       : 10357      218.19s   3.003%  ------ ++
++ potential_apply_to_ngwf_batch        :   147      305.12s   4.199%  ------ ++
++ cell_grid_extract_box_real           :  4490      430.89s   5.931%  ------ ++
++ fourier_apply_box                    : 23277      474.63s   6.533%  4.177k ++
++ projectors_gradient_batch            :    14      582.60s   8.019%  ------ ++
++ properties_calculate                 :     1      755.51s  10.398%  ------ ++
++ ngwf_cg_optimise                     :     1      772.24s  10.629%  ------ ++
++ projectors_grad_precond_batch        :    14      802.75s  11.049%  ------ ++
================================================================================
(!) WARNING: You're wasting precious cycles calling timer. 
             Each pair of timer_clock calls itself cost   1.34 microseconds!
Overhead of generating timer report: 
- 0 ms averaging over threads,
- 27 ms ensuring consistency across MPI ranks,
- 0 ms printing in order.

Job completed: 19-09-2021 13:07 (+0100)

