 +---------------------------------------------------------------+
 |                                                               |
 |        ####### #     # ####### ####### ####### ######         |
 |        #     # ##    # #          #    #       #     #        |
 |        #     # # #   # #          #    #       #     #        |
 |        #     # #  #  # #####      #    #####   ######         |
 |        #     # #   # # #          #    #       #              |
 |        #     # #    ## #          #    #       #              |
 |        ####### #     # #######    #    ####### #              |
 |                                                               |
 |        Linear-Scaling Ab Initio Total Energy Program          |
 |                                                               |
 |          Release for academic collaborators of ODG            |
 |                                             Version 6.1.3.6   |
 |                                                               |
 +---------------------------------------------------------------+
 |                                                               |
 |  Authors:                                                     |
 |  Jacek Dziedzic, Peter D. Haynes, Nicholas D. M. Hine,        |
 |  Arash A. Mostofi, Mike C. Payne and Chris-Kriton Skylaris    |
 |                                                               |
 |  Contributors:                                                |
 |  J. Aarons, L. Andrinopoulos, P. W. Avraam, R. A. Bell,       |
 |  A. Bhandari, G. A. Bramley, R. J. Charlton, S. J. Clark,     |
 |  R. J. Clements, G. C. Constantinescu, F. Corsetti,           |
 |  N. Corsini, O. Dieguez, S. M. M. Dubois, K. K. B. Duff,      |
 |  J. M. Escartin, A. Greco, H. Helal, Q. O. Hill, L. P. Lee,   |
 |  J.-H. Li, E. B. Linscott, G. Moynihan, D. D. O`Regan,        |
 |  O. K. Okan, M. J. S. Phipps, C. J. Pickard,                  |
 |  J. C. A. Prentice, M. I. J. Probert, L. E. Ratcliff,         |
 |  M. Robinson, A. Ruiz Serrano, J. S. Spencer, E. W. Tait,     |
 |  G. Teobaldi, D. Turban, V. Vitale, K. A. Wilkinson,          |
 |  C. Weber, J. C. Womack, N. Yeung and T. J. Zuehlsdorff       |
 |                                                               |
 |                                   Copyright (c) 2004-2021     |
 |                                                               |
 |  Please cite:                                                 |
 |  "The ONETEP linear-scaling density functional theory program"|
 |   J. Chem. Phys. 152(17) 174111 (2020)                        |
 |                                                               |
 |          in all publications arising from your use of ONETEP. |
 |                                                               |
 +---------------------------------------------------------------+
 |                                                               |
 |   ONETEP is based on developments described in the following  |
 |   publications:                                               |
 |                                                               |
 |  "Nonorthogonal generalized Wannier function pseudopotential  |
 |   plane-wave method".                                         |
 |   C.-K. Skylaris, A. A. Mostofi, P. D. Haynes, O. Dieguez,    |
 |   M. C. Payne.                                                |
 |   Phys. Rev. B 66 035119 (2002).                              |
 |                                                               |
 |  "Preconditioned iterative minimization for linear-scaling    |
 |   electronic structure calculations".                         |
 |   A. A. Mostofi, P. D. Haynes, C.-K. Skylaris, M. C. Payne.   |
 |   J. Chem. Phys. 119(17), pp.8842-8848 (2003).                |
 |                                                               |
 |  "Total-energy calculations on a real space grid with         |
 |   localized functions and a plane-wave basis".                |
 |   A. A. Mostofi, C.-K. Skylaris, P. D. Haynes, M. C. Payne.   |
 |   Comput. Phys. Commun. 147, pp.788-802 (2002).               |
 |                                                               |
 |  "Accurate kinetic energy evaluation in electronic structure  |
 |   calculations with localized functions on real space grids"  |
 |   C.-K. Skylaris, A. A. Mostofi, P. D. Haynes, C. J. Pickard, |
 |   M. C. Payne.                                                |
 |   Comput. Phys. Commun. 140, pp.315-322 (2001).               |
 |                                                               |
 |  "Accurate ionic forces and geometry optimization in linear-  |
 |   scaling density-functional theory with local orbitals"      |
 |   N. D. M. Hine, M. Robinson, P. D. Haynes, C.-K. Skylaris,   |
 |   M. C. Payne, and A. A. Mostofi.                             |
 |   Phys. Rev. B 83 195102 (2011).                              |
 |                                                               |
 +---------------------------------------------------------------+

Job started: 18-12-2021 02:26 (-0000)
 
Reading parameters from file "56/592nano.dat" ...... done

If your calculation crashes here, before "Checking processes and threads..."
is displayed, then your stack size is insufficient.
If so, use "ulimit -s unlimited" at runtime.
You can disable this check with "check_stack_size F".

Checking processes and threads...
   Determining the default number of threads...
      No default threads set at compilation time: defaulting to 1.
      OpenMP library call suggests 4 threads.
      Hybrid MPI-OpenMP compilation detected.
      Number of MPI processes > 1.
      OMP_NUM_THREADS environment variable present and
      its value matches the one obtained from the OpenMP library call.
      Using this value as default.
      Default threads: 4
      Default applies to threads_max and threads_num_fftboxes.
      Settings in the input file override this default.
   ... done

   Running with 160 MPI processes.
   There are 16 MPI processes running on the same node as the root process.
   Each MPI process is using: 
               1 threads for simulation cell FFTs.
               1 threads for parallel FFT box operations.
               4 threads for loops over batched FFT box operations.
               4 threads in other parallel regions.
... done

Basic input checks...
Resetting ngwf_cg_rotate to TRUE for EDFT calculations
... done

Reading geometry and species blocks from file "56/592nano.dat" ...    
  Number of PPD points along a3 set to 1.  This is 
  the default value, it may have been provided also in the input file.
... done
 Writing xyz coordinates to file "56/592nano.xyz" ... done


--------------------------------------------------------------------------------
---------------------------------- INPUT FILE ----------------------------------
--------------------------------------------------------------------------------

task : singlepoint                                                              
do_properties : true                                                            
dx_format T                                                                     
edft T                                                                          
edft_spin_fix 3                                                                 
output_detail VERBOSE                                                           
timings_level 3                                                                 
write_xyz T                                                                     
edft_update_scheme: pulay_mix                                                   
edft_ham_diis_size: 10                                                          
edft_trial_step: 0.1                                                            
xc_functional OPTPBE                                                            
cutoff_energy 830 eV                                                            
paw T                                                                           
geom_disp_tol 0.06 bohr                                                         
geom_energy_tol 6E-6 hartree                                                    
geom_force_tol 0.012 "ha/bohr"                                                  
geom_max_iter 25                                                                
EDFT_MAXIT 30                                                                   
pdos_max_l = 2                                                                  
dos_smear  0.1 eV                                                               
popn_calculate T                                                                
PDOS_PSEUDOATOMIC T                                                             
PDOS_REDUCE_SWS F                                                               
PDOS_CONSTRUCT_BASIS F                                                          
PDOS_LOWDIN T                                                                   
PDOS_ORTH_ATOM_BLOCKS F                                                         
PDOS_LCAO_OPTIMIZE F                                                            
pdos_optados_output T                                                           
homo_plot 0                                                                     
lumo_plot 0                                                                     
homo_dens_plot -1                                                               
lumo_dens_plot -1                                                               
%BLOCK SPECIES                                                                  
C C 6 4 9.0                                                                     
H H 1 1 9.0                                                                     
Li Li 3 5 9.0                                                                   
%ENDBLOCK SPECIES                                                               
%BLOCK SPECIES_POT                                                              
C "~/pp/paw/c_pbe_abinit.paw"                                                   
H "~/pp/paw/h_pbe_abinit.paw"                                                   
Li "~/pp/paw/li_pbe_abinit.paw"                                                 
%ENDBLOCK SPECIES_POT                                                           
%BLOCK SPECIES_ATOMIC_SET                                                       
C "SOLVE conf=2s2 2p2"                                                          
H "SOLVE conf=1s1"                                                              
Li "SOLVE conf=1s2 2s1 2p0"                                                     
%ENDBLOCK SPECIES_ATOMIC_SET                                                    
%BLOCK SPECIES_LDOS_GROUPS                                                      
C                                                                               
H                                                                               
Li                                                                              
%ENDBLOCK SPECIES_LDOS_GROUPS                                                   
%BLOCK LATTICE_CART                                                             
94.486315650000      0.000000000000       0.000000000000                        
0.000000000000       94.486315650000      0.000000000000                        
0.000000000000       0.000000000000       94.486315650000                       
%ENDBLOCK LATTICE_CART                                                          
%BLOCK POSITIONS_ABS                                                            
C 42.857945 41.443396 31.406603                                                 
C 38.781145 43.736163 31.573295                                                 
C 41.528480 39.127330 30.926389                                                 
C 45.560469 41.468457 31.422598                                                 
C 37.455048 41.411718 31.125130                                                 
C 37.412624 46.061540 31.731609                                                 
C 54.966274 48.594649 31.153223                                                 
C 54.903696 53.279270 31.145823                                                 
C 53.640388 46.246095 31.254996                                                 
C 38.623857 57.800040 31.766815                                                 
C 42.643065 60.204480 31.664287                                                 
C 37.308757 55.440497 31.824081                                                 
C 53.533978 55.606089 31.292190                                                 
C 45.349701 60.226055 31.632830                                                 
C 46.932884 39.161126 31.080540                                                 
C 41.485575 43.761990 31.676599                                                 
C 34.713929 46.038325 31.510332                                                 
C 50.962512 41.541203 31.143285                                                 
C 53.590674 50.924352 31.353214                                                 
C 34.670738 50.714293 31.634027                                                 
C 41.325302 57.842762 31.887571                                                 
C 38.820089 39.124020 30.733541                                                 
C 55.001032 43.926887 30.954026                                                 
C 49.601085 43.858338 31.477708                                                 
C 37.357807 50.748929 31.918450                                                 
C 49.448014 57.914887 31.616327                                                 
C 34.611925 55.396493 31.545403                                                 
C 57.640191 48.617630 30.677960                                                 
C 50.761567 60.263583 31.319951                                                 
C 57.565206 53.296123 30.597195                                                 
C 37.244912 60.107297 31.349298                                                 
C 54.830643 57.957842 30.971616                                                 
C 50.834973 55.585033 31.601910                                                 
C 46.740732 57.896285 31.779981                                                 
C 41.261187 62.504683 31.271453                                                 
C 46.668302 62.559389 31.274554                                                 
C 46.896704 43.821286 31.622740                                                 
C 50.937979 46.213414 31.518981                                                 
C 38.735040 48.414609 31.947623                                                 
C 38.682813 53.116126 31.994542                                                 
C 49.618254 39.210338 30.949441                                                 
C 33.363397 48.354923 31.439525                                                 
C 42.911449 36.809670 30.558853                                                 
C 53.651643 41.594845 30.847767                                                 
C 34.746342 41.392516 30.965865                                                 
C 33.314713 53.048539 31.392274                                                 
C 45.607660 36.824203 30.678972                                                 
C 33.385895 43.688102 31.216164                                                 
C 58.922372 50.967533 30.326526                                                 
C 53.444139 60.267553 30.988902                                                 
C 49.357391 62.567079 31.117980                                                 
C 38.556119 62.449475 31.077990                                                 
C 50.892758 50.897565 31.643326                                                 
C 42.711315 55.513151 32.032890                                                 
C 42.816159 46.115310 31.900780                                                 
C 57.690519 43.948209 30.600040                                                 
C 59.004584 46.287350 30.407866                                                 
C 33.224861 57.709353 31.292369                                                 
C 34.525670 60.047959 31.128708                                                 
C 58.852734 55.663692 30.209685                                                 
C 49.511714 53.229336 31.754821                                                 
C 45.422477 55.538978 31.957074                                                 
C 57.492094 57.985189 30.423284                                                 
C 49.563790 48.538182 31.711929                                                 
C 41.389039 53.147820 32.094487                                                 
C 42.583073 64.841068 30.863592                                                 
C 41.441720 48.447242 32.030080                                                 
C 45.525843 46.147143 31.844247                                                 
C 45.282453 64.867252 30.876071                                                 
C 37.480440 36.787433 30.111328                                                 
C 46.804945 53.205373 31.939007                                                 
C 42.768787 50.811515 32.089949                                                 
C 46.857696 48.507346 31.891360                                                 
C 41.565178 34.466360 30.025494                                                 
C 33.409786 39.083116 30.427121                                                 
C 50.980097 36.896713 30.452347                                                 
C 55.011030 39.291902 30.324768                                                 
C 30.669516 48.321761 30.988226                                                 
C 46.985518 34.502844 30.259769                                                 
C 30.631981 53.026672 30.867528                                                 
C 30.691956 43.659054 31.003836                                                 
C 45.477776 50.841295 32.014129                                                 
C 61.597860 50.989634 29.633138                                                 
C 38.882257 34.506647 29.874827                                                 
C 34.809297 36.827126 29.953587                                                 
C 37.150640 64.763976 30.516159                                                 
C 59.053485 41.606131 30.278556                                                 
C 54.742432 62.609315 30.468514                                                 
C 50.658634 64.892212 30.546869                                                 
C 61.680370 46.303569 29.787866                                                 
C 30.531120 57.674364 31.063076                                                 
C 61.523165 55.680437 29.552361                                                 
C 33.127018 62.357329 30.740578                                                 
C 41.189955 67.148460 30.319582                                                 
C 58.779883 60.344520 29.942789                                                 
C 46.613216 67.198952 30.350967                                                 
C 49.668296 34.591259 30.261947                                                 
C 29.395695 45.993161 30.867033                                                 
C 62.915718 48.669997 29.411919                                                 
C 53.673348 36.939911 30.391340                                                 
C 62.843109 53.347837 29.361513                                                 
C 57.668664 39.316735 30.224178                                                 
C 29.302898 50.657777 30.921425                                                 
C 42.985820 32.185772 29.802285                                                 
C 34.471642 64.671384 30.483175                                                 
C 38.496922 67.066692 30.187167                                                 
C 29.290954 55.321422 30.841093                                                 
C 30.720794 39.080202 30.560184                                                 
C 45.636446 32.215845 29.864087                                                 
C 29.401038 41.315764 30.849353                                                 
C 57.370524 62.629441 30.077986                                                 
C 53.363216 64.932918 30.558292                                                 
C 49.296824 67.158860 30.275007                                                 
H 37.868482 32.731689 29.482932                                                 
H 33.789755 35.078589 29.453946                                                 
C 63.007774 43.962168 29.638849                                                 
C 61.713047 41.651442 29.915317                                                 
C 62.757919 58.050924 29.226562                                                 
C 29.180096 60.002100 31.018137                                                 
C 30.433622 62.275688 30.857424                                                 
C 61.401529 60.323144 29.359269                                                 
C 42.565628 69.439232 29.993649                                                 
C 45.217358 69.455241 29.955294                                                 
H 64.869323 53.370261 28.885694                                                 
H 64.927607 48.690067 28.869701                                                 
H 50.718337 32.857245 29.738625                                                 
H 41.960494 30.401024 29.500039                                                 
H 29.705023 37.269005 30.371535                                                 
H 27.350205 45.969222 30.394987                                                 
H 37.447949 68.804503 29.718314                                                 
H 33.403383 66.431320 30.162725                                                 
H 58.691990 37.521866 29.922347                                                 
H 27.219908 55.293613 30.561206                                                 
H 46.706867 30.441597 29.667787                                                 
H 54.661791 35.251030 29.650035                                                 
H 27.317423 41.315825 30.899328                                                 
H 27.367898 50.638377 30.120834                                                 
H 58.302610 64.410861 29.506220                                                 
H 50.310753 68.902394 29.721531                                                 
H 65.065722 43.985824 29.309684                                                 
H 62.744569 39.845267 29.824204                                                 
H 54.293749 66.621644 29.741326                                                 
H 64.792287 58.058901 28.790270                                                 
H 29.380702 64.074147 30.786054                                                 
H 27.097054 59.942778 31.077766                                                 
H 41.507208 71.204205 29.677978                                                 
H 62.369047 62.136649 29.035275                                                 
H 46.250809 71.234199 29.636945                                                 
C 44.220539 39.035110 37.286499                                                 
C 36.036947 43.685527 37.451980                                                 
C 40.138687 41.381702 37.432304                                                 
C 41.519376 39.056129 37.323289                                                 
C 49.659490 39.032295 37.069239                                                 
C 37.431528 41.373688 37.336905                                                 
C 48.286518 41.404010 37.080652                                                 
C 53.738558 41.429442 37.159416                                                 
C 45.564695 41.389668 37.216631                                                 
C 52.372206 43.772688 37.130522                                                 
C 35.997654 48.359559 37.657552                                                 
C 37.368744 46.038924 37.675994                                                 
C 45.582842 36.680175 37.261851                                                 
C 35.935896 53.047878 37.443783                                                 
C 33.278774 48.340166 37.564342                                                 
C 53.688068 46.129562 37.049008                                                 
C 52.391138 39.067884 37.100105                                                 
C 33.222895 53.044669 37.581219                                                 
C 56.412336 46.149675 36.974351                                                 
C 33.327565 43.659064 37.271874                                                 
C 49.631724 43.755739 37.146650                                                 
C 37.284904 55.403600 37.577048                                                 
C 48.305469 36.686913 37.206097                                                 
C 41.468415 43.726557 37.592306                                                 
C 37.339485 50.703830 37.628268                                                 
C 35.912341 57.742623 37.640477                                                 
C 56.451234 41.430997 37.160862                                                 
C 56.353325 50.865449 36.928875                                                 
C 53.642171 50.842848 37.059758                                                 
C 53.597880 55.566534 37.125708                                                 
C 31.885313 50.691777 37.714588                                                 
C 45.381034 60.162737 37.330376                                                 
C 41.342485 57.773218 37.759798                                                 
C 57.777734 43.798649 36.999544                                                 
C 31.953958 45.981795 37.399412                                                 
C 52.210123 57.883507 37.193777                                                 
C 44.179852 43.737335 37.438419                                                 
C 48.107146 60.205877 37.202109                                                 
C 40.089395 46.055470 37.738918                                                 
C 39.964794 60.112563 37.752858                                                 
C 49.483007 57.860569 37.150679                                                 
C 52.301037 48.481768 37.049120                                                 
C 57.737819 48.517630 36.856681                                                 
C 40.011123 55.417199 37.734735                                                 
C 56.330366 55.587177 37.021115                                                 
C 52.259015 53.177583 37.197521                                                 
C 44.044543 57.793643 37.565549                                                 
C 40.174760 36.693921 37.196652                                                 
C 31.844337 55.408015 37.666709                                                 
C 44.013229 62.512736 37.394399                                                 
C 36.069989 39.016005 37.145705                                                 
C 33.187005 57.739812 37.601740                                                 
C 37.258062 60.073063 37.789407                                                 
C 57.688201 53.233369 36.921690                                                 
C 41.298198 62.466776 37.557424                                                 
C 48.253107 46.101537 37.340228                                                 
C 40.036283 50.729086 37.828017                                                 
C 48.130668 55.481571 37.285513                                                 
C 44.213431 34.286646 37.316359                                                 
C 53.768986 36.697587 37.292906                                                 
C 53.566401 60.269787 37.252919                                                 
C 49.583849 48.461915 37.342136                                                 
C 49.439814 62.587134 37.357242                                                 
C 41.385161 53.083333 37.843270                                                 
C 45.418782 55.465226 37.588370                                                 
C 49.526461 53.148755 37.370106                                                 
C 45.523039 46.096314 37.517013                                                 
C 41.425872 48.399434 37.840030                                                 
C 31.956202 41.306124 37.026993                                                 
C 37.460346 36.696625 37.085149                                                 
C 49.674758 34.258206 37.313198                                                 
C 41.512836 34.354907 37.172181                                                 
C 57.682098 57.954201 37.087926                                                 
C 57.878557 39.046217 37.209790                                                 
C 33.377125 39.014654 37.138995                                                 
C 45.347028 64.900696 37.471210                                                 
C 44.098414 53.106793 37.822679                                                 
C 48.196833 50.787014 37.540067                                                 
C 29.135467 50.661250 37.937044                                                 
C 44.145864 48.417122 37.759325                                                 
C 60.449130 48.544547 36.764622                                                 
C 52.171473 62.604566 37.389452                                                 
C 45.490357 50.768440 37.749978                                                 
C 60.518895 43.794304 36.955039                                                 
C 29.191338 45.924368 37.557138                                                 
C 56.286745 60.279554 37.250386                                                 
C 56.494411 36.705622 37.312947                                                 
C 29.076123 55.410433 37.694000                                                 
C 48.082048 64.919184 37.536469                                                 
C 60.396661 53.265329 36.831118                                                 
C 52.398342 34.346900 37.530066                                                 
C 35.880302 62.417363 37.714190                                                 
C 31.793236 60.074525 37.405152                                                 
C 39.931499 64.827137 37.440512                                                 
C 45.589947 31.961347 37.178429                                                 
C 27.767730 53.008922 37.981928                                                 
C 61.847701 46.188417 36.726775                                                 
C 27.861843 48.274681 37.995497                                                 
C 61.758653 50.917058 36.589112                                                 
C 48.297259 31.978373 37.186786                                                 
C 29.282277 41.319398 36.929000                                                 
C 33.157226 62.428539 37.590052                                                 
C 60.529777 39.094018 36.947487                                                 
C 37.229583 64.753790 37.397473                                                 
C 60.431359 57.994259 36.969032                                                 
H 36.427748 34.877118 37.255377                                                 
H 40.446039 32.554582 37.158559                                                 
C 61.846843 41.433547 36.863310                                                 
C 43.967677 67.269629 37.533546                                                 
H 32.336374 37.197764 37.248546                                                 
C 61.725774 55.634202 36.607769                                                 
C 27.928155 43.586104 37.302245                                                 
C 41.249076 67.196387 37.359573                                                 
H 57.526181 34.906287 37.035088                                                 
C 27.791123 57.740500 37.466721                                                 
C 29.123956 60.014961 37.314409                                                 
H 53.458410 32.540383 37.604704                                                 
C 53.531229 64.983213 37.622269                                                 
H 44.548348 30.157582 37.175353                                                 
H 25.681866 52.990304 38.012377                                                 
C 57.684740 62.679245 37.453469                                                 
C 49.422335 67.362470 37.618585                                                 
H 63.852070 46.240055 37.337120                                                 
H 28.269148 39.521712 36.667250                                                 
H 25.807946 48.227232 38.388799                                                 
H 63.850970 50.920752 36.836539                                                 
H 49.326954 30.166731 37.148932                                                 
H 61.570681 37.294689 36.831219                                                 
H 32.160278 64.192447 37.046013                                                 
H 36.163060 66.583418 37.329108                                                 
H 63.938686 41.440049 36.888862                                                 
H 63.821729 55.635567 36.495831                                                 
H 25.846347 43.560746 37.387809                                                 
H 25.707814 57.740086 37.395761                                                 
C 61.726405 60.355594 36.912085                                                 
H 40.183052 68.969653 37.716609                                                 
C 45.314420 69.634365 37.478125                                                 
H 28.102820 61.819256 37.092770                                                 
C 52.181682 67.355880 37.495333                                                 
C 56.232355 64.951081 37.830767                                                 
C 60.350383 62.673831 37.202984                                                 
C 48.019936 69.653901 37.613186                                                 
H 63.809459 60.369367 36.858632                                                 
H 44.246973 71.414766 37.560296                                                 
H 53.222519 69.133925 37.909074                                                 
H 57.250596 66.751365 38.135389                                                 
H 61.371313 64.483766 37.276252                                                 
H 49.041727 71.468717 37.664606                                                 
H 28.476130 38.035716 44.100210                                                 
H 40.252305 30.028048 44.430769                                                 
H 32.405596 35.350795 43.626478                                                 
H 36.301359 32.657003 43.803458                                                 
H 44.981298 29.748209 44.658313                                                 
H 26.392192 42.350529 44.197009                                                 
C 41.407045 31.762099 44.386841                                                 
C 29.655662 39.751174 44.128269                                                 
H 61.923626 37.861713 43.531568                                                 
C 33.561757 37.061673 43.927874                                                 
C 37.464990 34.382761 43.958478                                                 
C 44.040930 31.598317 44.480423                                                 
H 49.155931 31.742010 44.112513                                                 
H 64.578112 41.853420 43.410493                                                 
C 28.466177 42.193281 44.216866                                                 
H 65.585078 55.992044 43.767506                                                 
H 26.813681 47.110653 44.171638                                                 
H 27.816408 61.029410 44.799900                                                 
H 53.385502 33.775352 43.896937                                                 
H 57.641793 35.823590 44.090697                                                 
H 30.462104 65.011366 44.685184                                                 
H 27.227637 51.744938 44.784944                                                 
H 65.271372 51.265258 43.503214                                                 
H 43.224924 71.234824 44.459024                                                 
H 63.499631 60.259800 44.118255                                                 
H 27.532765 56.300088 44.982145                                                 
H 64.895751 46.589322 43.291033                                                 
C 32.311458 39.489190 44.092832                                                 
C 40.192326 34.137557 44.192470                                                 
H 48.036794 70.892085 44.595135                                                 
C 36.262510 36.810627 44.003136                                                 
H 38.964735 69.160809 44.327848                                                 
C 61.009509 39.724733 43.637905                                                 
C 62.505622 41.985401 43.538502                                                 
H 34.735355 67.136947 44.566613                                                 
C 48.251738 33.635136 44.185072                                                 
C 63.506469 56.126488 43.823650                                                 
C 28.886747 46.911442 44.427090                                                 
H 59.596931 62.907687 44.472456                                                 
C 29.900552 60.895275 44.740589                                                 
C 45.556818 33.786247 44.357047                                                 
H 51.919712 68.200338 44.831090                                                 
H 55.756972 65.479100 44.749662                                                 
C 29.968545 44.434726 44.217429                                                 
C 31.391498 63.146946 44.605864                                                 
C 52.484719 35.682016 43.997863                                                 
C 62.339496 58.527298 44.029678                                                 
C 56.740420 37.690744 43.780556                                                 
C 44.147296 69.362835 44.428603                                                 
C 29.329999 51.565656 44.776162                                                 
C 63.186763 51.410943 43.566762                                                 
C 29.623518 56.189046 44.771875                                                 
C 62.820106 46.718382 43.413860                                                 
C 46.855129 69.178554 44.533063                                                 
C 49.762775 35.843320 43.956940                                                 
C 58.314683 39.882009 43.665981                                                 
C 39.885791 67.292962 44.272720                                                 
C 54.047130 37.902504 43.644110                                                 
C 30.438305 49.130079 44.536159                                                 
C 61.382283 44.414993 43.525417                                                 
C 35.645254 65.256417 44.432502                                                 
C 41.704431 36.440870 44.146913                                                 
C 62.034051 53.884544 43.817089                                                 
C 33.904126 41.766299 44.113914                                                 
C 31.065141 58.469793 44.550026                                                 
C 45.432061 50.331004 43.642279                                                 
C 30.826853 53.787619 44.884037                                                 
C 37.801191 39.086015 44.037638                                                 
C 61.700030 49.155617 43.525138                                                 
C 46.959162 52.582415 43.764866                                                 
C 58.452066 61.158435 44.362429                                                 
C 42.734605 50.545291 43.691821                                                 
C 46.593124 47.878159 43.720488                                                 
C 44.392021 36.254976 44.147996                                                 
C 34.074122 63.011091 44.426245                                                 
C 50.724130 66.466404 44.787751                                                 
C 42.609687 67.171833 44.305894                                                 
C 32.724227 44.226208 44.158737                                                 
C 54.576039 63.759593 44.584805                                                 
C 59.674852 58.737782 44.188007                                                 
C 45.791336 55.042471 43.856956                                                 
C 49.654131 52.366933 43.923540                                                 
C 41.207729 48.285601 43.691273                                                 
C 45.063802 45.633672 43.804846                                                 
C 38.343127 65.098275 44.257525                                                 
C 41.593313 52.997212 43.934148                                                 
C 49.294041 47.677809 43.859048                                                 
C 48.044398 66.749142 44.480323                                                 
C 40.515712 38.889681 43.993461                                                 
C 36.601769 41.551277 44.033531                                                 
C 42.361646 45.828572 43.698250                                                 
C 43.092982 55.260328 43.860798                                                 
C 50.827283 49.928270 43.902129                                                 
C 48.591258 38.307800 43.960786                                                 
C 55.771550 61.367188 44.510067                                                 
C 33.162061 48.918755 44.333157                                                 
C 52.837062 40.359006 43.665576                                                 
C 57.089810 42.349914 43.651186                                                 
C 51.905412 64.027039 44.327443                                                 
C 58.609996 44.626771 43.670529                                                 
C 45.892082 38.495950 43.996053                                                 
C 46.230245 43.190855 44.013659                                                 
C 38.520793 48.485994 43.858218                                                 
C 34.280431 46.462173 44.114188                                                 
C 33.526288 53.591660 44.564719                                                 
C 50.475017 45.225561 43.900004                                                 
C 38.915844 53.188571 44.303120                                                 
C 51.184855 54.604959 44.185726                                                 
C 40.832919 43.593368 43.784059                                                 
C 50.131804 40.546400 43.849710                                                 
C 47.318465 57.276362 44.173141                                                 
C 33.821578 58.283996 44.428173                                                 
C 59.300056 54.047342 43.938981                                                 
C 42.022670 41.133542 43.864724                                                 
C 38.144217 43.802713 43.861002                                                 
C 48.946505 42.989570 43.952434                                                 
C 44.704042 40.935718 43.936266                                                 
C 58.955118 49.355577 43.718302                                                 
C 37.390258 50.933822 44.218074                                                 
C 35.316360 60.545154 44.319012                                                 
C 36.980571 46.248966 43.889158                                                 
C 34.690404 51.150663 44.355791                                                 
C 54.380193 42.577465 43.685814                                                 
C 53.542013 49.708517 43.985105                                                 
C 50.012811 57.054983 44.342129                                                 
C 43.798200 64.657278 44.276176                                                 
C 41.923399 57.715186 44.004775                                                 
C 58.118938 56.466743 44.125442                                                 
C 35.021849 55.859954 44.523749                                                 
C 53.202078 45.011053 43.849708                                                 
C 57.444626 47.066818 43.765047                                                 
C 39.533560 62.603809 44.146682                                                 
C 37.739405 55.665556 44.434782                                                 
C 57.784330 51.790191 43.925971                                                 
C 54.707856 47.273560 43.888517                                                 
C 46.526469 64.462689 44.364494                                                 
C 53.897997 54.402111 44.185126                                                 
C 55.076199 51.971585 44.104164                                                 
C 39.219537 57.916426 44.189594                                                 
C 46.143731 59.734874 44.324444                                                 
C 38.014837 60.354789 44.180563                                                 
C 54.236961 59.099038 44.335301                                                 
C 43.447930 59.940776 44.128813                                                 
C 50.368061 61.746932 44.351102                                                 
C 42.270379 62.422475 44.184778                                                 
C 51.547594 59.319588 44.336721                                                 
C 55.426796 56.666931 44.221966                                                 
C 47.682314 61.983049 44.511069                                                 
H 43.897534 29.841696 50.321165                                                 
H 28.062679 39.492955 51.823059                                                 
H 48.626599 29.704951 50.503606                                                 
H 60.935395 36.500737 51.250033                                                 
H 63.368667 40.568214 51.412883                                                 
H 25.757777 43.635588 52.015368                                                 
H 28.492518 61.695395 52.214582                                                 
H 26.018488 57.638218 52.197245                                                 
H 36.125710 34.847348 51.844825                                                 
H 40.012494 32.315945 51.133578                                                 
H 32.107113 37.146422 51.791740                                                 
H 63.551061 49.858561 51.226768                                                 
H 36.656031 66.109571 52.070163                                                 
H 63.763754 59.092817 51.951700                                                 
H 44.784559 70.578604 52.534243                                                 
H 63.478872 45.247545 51.165981                                                 
H 32.612405 63.899244 52.173150                                                 
H 52.705891 31.982672 51.254356                                                 
H 56.828962 34.224375 51.116738                                                 
H 63.640712 54.453739 51.573613                                                 
H 61.485255 63.243158 52.267682                                                 
H 40.684388 68.367977 52.065333                                                 
H 49.522975 70.517772 52.437653                                                 
H 25.928322 52.978710 52.031113                                                 
H 25.894385 48.321194 52.318253                                                 
C 45.010438 31.602590 50.371325                                                 
C 47.620177 31.531913 50.478621                                                 
C 29.101732 41.285329 51.613288                                                 
C 59.952627 38.323060 51.036932                                                 
C 27.814116 43.589789 51.693812                                                 
C 61.305074 40.591955 51.149559                                                 
C 28.076565 57.618663 51.886735                                                 
C 29.454317 59.874127 51.906661                                                 
H 57.515863 65.682688 52.164919                                                 
H 53.551840 68.130746 52.105007                                                 
C 41.068738 34.087192 50.737700                                                 
C 37.047559 36.444563 50.848625                                                 
C 33.115417 38.890813 51.216338                                                 
C 61.705300 59.191910 51.651536                                                 
C 45.801358 68.813670 52.106179                                                 
C 60.441572 61.500300 51.817783                                                 
C 51.723883 33.796594 50.938356                                                 
C 48.443717 68.782808 52.042411                                                 
C 55.838028 36.037144 50.858185                                                 
C 61.416102 45.280954 50.863882                                                 
C 61.533101 49.920970 50.672264                                                 
C 33.545243 62.140674 51.525802                                                 
C 37.607164 64.370957 51.396787                                                 
C 27.897679 48.284603 51.744057                                                 
C 27.972734 52.943538 51.622342                                                 
C 61.628108 54.545828 51.009037                                                 
C 41.686407 66.591168 51.636525                                                 
C 43.712162 33.944441 50.408588                                                 
C 49.046034 33.813246 50.647280                                                 
C 31.753640 41.202833 51.209840                                                 
C 57.266940 38.309385 50.813073                                                 
C 29.137482 45.929536 51.460101                                                 
C 60.066118 42.963559 50.861018                                                 
C 29.306211 55.247064 51.500221                                                 
C 39.766006 36.395663 50.685562                                                 
C 32.108348 59.878084 51.467266                                                 
C 35.745883 38.820283 50.877914                                                 
C 53.156660 36.052149 50.772453                                                 
C 56.455665 63.947088 51.715129                                                 
C 52.482029 66.387066 51.723349                                                 
C 29.229470 50.610745 51.484403                                                 
C 45.368568 50.299471 49.392659                                                 
C 60.378646 56.918324 51.102516                                                 
C 60.161651 47.614540 50.715261                                                 
C 44.369761 66.587941 51.612909                                                 
C 36.197657 62.097822 51.272792                                                 
C 60.260538 52.285588 50.723500                                                 
C 40.291276 64.352658 51.362889                                                 
C 57.762706 61.649239 51.476911                                                 
C 49.807145 66.490569 51.631014                                                 
C 44.064831 52.673657 49.480350                                                 
C 48.079911 50.238822 49.441031                                                 
C 43.962763 47.981093 49.387846                                                 
C 53.812389 64.062753 51.520917                                                 
C 45.473495 54.985636 49.605965                                                 
C 49.483972 52.554696 49.568205                                                 
C 45.097364 36.251493 50.147965                                                 
C 41.352311 52.724068 49.583497                                                 
C 49.381651 47.864329 49.470064                                                 
C 47.773428 36.184804 50.237709                                                 
C 33.119887 43.523741 50.760486                                                 
C 41.254457 48.038055 49.481132                                                 
C 45.271889 45.605862 49.418849                                                 
C 31.817317 45.874902 50.881852                                                 
C 55.969149 40.703676 50.463103                                                 
C 57.361758 43.010593 50.454024                                                 
C 31.994466 55.214088 50.991152                                                 
C 33.384565 57.517698 50.947375                                                 
C 48.184448 54.924840 49.659572                                                 
C 39.949459 50.409492 49.595550                                                 
C 47.979514 45.545389 49.457098                                                 
C 51.853306 38.443961 50.321935                                                 
C 41.120707 38.693403 50.145947                                                 
C 37.112093 41.116967 50.309908                                                 
C 57.680973 57.010991 50.696202                                                 
C 31.904692 50.554008 50.827685                                                 
C 45.690610 64.258456 51.051462                                                 
C 57.453082 47.682957 50.262652                                                 
C 56.383305 59.359089 50.879397                                                 
C 37.476765 59.757593 50.648736                                                 
C 48.385703 64.205993 51.082661                                                 
C 57.560641 52.363093 50.271859                                                 
C 41.588038 62.006699 50.746035                                                 
C 40.051389 55.088681 49.816786                                                 
C 44.173460 57.351279 49.832892                                                 
C 52.191142 52.491483 49.710245                                                 
C 52.085235 47.800648 49.623162                                                 
C 39.855853 45.720947 49.626835                                                 
C 49.176825 38.496088 50.048268                                                 
C 43.876210 43.290364 49.537668                                                 
C 43.795179 38.619622 49.947567                                                 
C 35.797386 43.465375 50.267593                                                 
C 53.263144 40.755893 50.166286                                                 
C 33.187237 48.199079 50.537270                                                 
C 33.272583 52.857779 50.578972                                                 
C 39.789966 41.046505 49.981611                                                 
C 41.461248 57.395151 49.938923                                                 
C 56.069375 45.373996 50.121696                                                 
C 53.485868 50.118796 49.738806                                                 
C 41.169236 43.350332 49.654945                                                 
C 36.070539 57.479396 50.494142                                                 
C 52.397149 61.766518 50.917988                                                 
C 37.245729 50.458106 49.866976                                                 
C 56.179716 50.055840 50.033468                                                 
C 49.283017 43.173433 49.608208                                                 
C 40.166005 59.734154 50.381562                                                 
C 49.592869 57.230138 49.930111                                                 
C 56.285496 54.720152 50.239920                                                 
C 44.285542 61.978577 50.580477                                                 
C 45.187565 40.924725 49.679028                                                 
C 37.161004 45.774961 49.915716                                                 
C 37.349670 55.129773 50.087759                                                 
C 53.380882 45.428249 49.790125                                                 
C 47.884329 40.857823 49.715486                                                 
C 35.852223 48.144858 50.045612                                                 
C 51.979993 43.115823 49.793316                                                 
C 35.949908 52.819575 50.121665                                                 
C 45.584970 59.646295 50.132063                                                 
C 53.691232 59.439144 50.564625                                                 
C 49.696776 61.854429 50.679977                                                 
C 53.592757 54.798810 49.960330                                                 
C 48.293404 59.586685 50.179616                                                 
C 52.296430 57.161222 50.094917                                                 
Li 59.784964 41.409396 40.265455                                                
Li 31.857989 60.657802 41.225195                                                
Li 30.442306 42.139190 40.744476                                                
Li 46.169341 67.787300 40.930928                                                
Li 59.824521 60.196408 40.493118                                                
Li 54.405994 62.213268 40.811020                                                
Li 41.219514 65.011561 41.030338                                                
Li 39.461541 35.861571 40.786096                                                
Li 29.800369 53.958145 41.251258                                                
Li 30.930902 47.853863 40.898655                                                
Li 51.055713 37.865124 40.620568                                                
Li 62.697886 53.474368 40.031446                                                
Li 62.724990 52.519013 47.536999                                                
Li 59.693500 46.944410 40.292686                                                
Li 35.138143 39.420408 40.866092                                                
Li 46.747211 33.914777 40.510766                                                
Li 55.253211 35.286708 40.764488                                                
Li 34.756696 64.775254 40.677654                                                
Li 56.235105 64.197220 33.817004                                                
Li 60.412119 46.957313 46.898720                                                
Li 51.366945 67.020508 33.732092                                                
Li 51.831829 64.691101 48.111964                                                
Li 34.772083 64.325856 48.265082                                                
Li 41.041946 64.862420 47.564151                                                
Li 59.729137 59.810771 48.047228                                                
Li 46.734243 67.632131 48.262171                                                
Li 28.239076 49.160440 47.877744                                                
Li 59.784299 40.776198 47.360556                                                
Li 34.029474 36.841217 47.879114                                                
Li 27.972019 48.017157 33.998121                                                
Li 44.224287 68.065844 33.696507                                                
Li 39.891516 36.087514 33.471468                                                
Li 61.003253 58.635945 33.090253                                                
Li 29.858667 43.087098 47.986608                                                
Li 51.991004 34.597893 33.584197                                                
Li 29.418978 53.143965 34.415772                                                
Li 62.468082 48.459911 33.347950                                                
Li 54.802648 37.956086 47.380983                                                
Li 30.031548 58.099896 48.314751                                                
Li 35.294853 62.816856 34.015549                                                
Li 44.517857 33.607489 33.474986                                                
Li 34.657322 37.264633 33.849840                                                
Li 55.864746 38.386925 33.860414                                                
Li 55.339997 53.252183 40.344757                                                
Li 61.122816 53.404519 33.083863                                                
Li 38.489307 34.094950 47.773182                                                
Li 52.013377 47.375769 40.724764                                                
Li 39.016826 66.634458 34.031995                                                
Li 50.877457 33.788620 47.137408                                                
Li 49.956514 56.021320 40.638827                                                
Li 62.280662 43.417090 33.487349                                                
Li 47.042574 43.328640 40.347028                                                
Li 51.483246 66.704656 41.129090                                                
Li 46.511169 61.730766 40.750742                                                
Li 36.495595 53.647047 41.135816                                                
Li 42.743160 56.740920 40.743480                                                
%ENDBLOCK POSITIONS_ABS                                                         

--------------------------------------------------------------------------------
-------------------------------- END INPUT FILE --------------------------------
--------------------------------------------------------------------------------


 
<<<<<<<<<<<<<<<<<<<<<<<<<<<<<<<<< Full system >>>>>>>>>>>>>>>>>>>>>>>>>>>>>>>>>>
<<<<<<<<<<<<<<<<<<<<<<<<<<< PAW Dataset information >>>>>>>>>>>>>>>>>>>>>>>>>>>
File: ~/pp/paw/c_pbe_abinit.paw; rc = 1.25 bohr; shape type =  3; rshape = 1.25 bohr;
  Atomic number:  6;  ionic charge:  4.000000
    Partial Wave 1: l = 0
    Partial Wave 2: l = 0
    Partial Wave 3: l = 1
    Partial Wave 4: l = 1
  Core charge supplied for Nonlinear Core Corrections
File: ~/pp/paw/h_pbe_abinit.paw; rc = 0.90 bohr; shape type =  3; rshape = 0.90 bohr;
  Atomic number:  1;  ionic charge:  1.000000
    Partial Wave 1: l = 0
    Partial Wave 2: l = 0
File: ~/pp/paw/li_pbe_abinit.paw; rc = 1.42 bohr; shape type =  3; rshape = 1.42 bohr;
  Atomic number:  3;  ionic charge:  3.000000
    Partial Wave 1: l = 0
    Partial Wave 2: l = 0
    Partial Wave 3: l = 0
    Partial Wave 4: l = 1
    Partial Wave 5: l = 1
<<<<<<<<<<<<<<<<<<<<<<<<<<<<<<<<<<<<<<< >>>>>>>>>>>>>>>>>>>>>>>>>>>>>>>>>>>>>>>

-------------------------- Atom counting information ---------------------------
Symbol    Natoms    Nngwfs    Nprojs
  C        484      1936      3872
  H        108       108       216
  Li        56       280       504
.......   ......    ......    ......
Totals:    648      2324      4592
--------------------------------------------------------------------------------

=============================== PSINC grid sizes ===============================
                      Simulation cell:  189 x 189 x 189
                              FFT-box:  117 x 117 x 117
                                  PPD:    7 x   7 x   1
Grid space d1=  0.499927596032a0 (KE cutoff=  30.39413Eh = 827.06648eV)
Grid space d2=  0.499927596032a0 (KE cutoff=  30.39413Eh = 827.06648eV)
Grid space d3=  0.499927596032a0 (KE cutoff=  30.39413Eh = 827.06648eV)
================================================================================
  
WARNING in cell_grid_distribute:
Average of less than one 23-slab per proc, so workload cannot be
equally balanced between procs.

********************* Fourier parallelisation information **********************
       Coarse grid (whole simulation cell) dimensions:    189   189   189
          Real-space ('12') slabs/proc (min max mean):      1     2     1
         Recip-space ('23') slabs/proc (min max mean):      0     1     0
********************************************************************************

********************* Fourier parallelisation information **********************
       Double grid (whole simulation cell) dimensions:    378   378   378
          Real-space ('12') slabs/proc (min max mean):      2     3     2
         Recip-space ('23') slabs/proc (min max mean):      1     2     1
********************************************************************************

Atom SCF Calculation for C  : Z (AE atom) =   6 : Z (PS atom) =   4
Config String: 2s2 2p2
Orbitals (num,occ):  2     2.00 2.00
Orbitals   (num,l):  2        0    1
Real-space Grid (nr,dr,rmax): 1377    0.0065406977    9.0000000000
Spherical Bessel Basis (nsws,lmax,cutoff):   37    2  183.0099912382
Confining potential (l,width,scale):  0    3.0000000000  100.0000000000
Confining potential (l,width,scale):  1    3.0000000000  100.0000000000
  1         -5.4795186097   -1.3252230651    4.5135247139   -1.6370402178
  2         -5.4480873667   -1.4027986130    4.4305957006   -1.6109824140
  3         -5.4553175168   -1.4212842775    4.4102621601   -1.6059044058
  4         -5.4627851864   -1.4247099971    4.4065125496   -1.6052912254
  5         -5.4662317525   -1.4266823431    4.4043718731   -1.6049357348
  6         -5.4679531179   -1.4277361345    4.4032352159   -1.6047498153
  7         -5.4688370531   -1.4282876632    4.4026436340   -1.6046546171
  8         -5.4692962224   -1.4285743132    4.4023378281   -1.6046060967
  9         -5.4695360875   -1.4287229388    4.4021801230   -1.6045813828
 10         -5.4696617783   -1.4287999625    4.4020988354   -1.6045687883
 11         -5.4697277645   -1.4288398966    4.4020569195   -1.6045623641
 12         -5.4697624500   -1.4288606199    4.4020352864   -1.6045590836
 13         -5.4697806994   -1.4288713865    4.4020241086   -1.6045574064
 14         -5.4697903086   -1.4288769875    4.4020183254   -1.6045565478
 15         -5.4697953717   -1.4288799052    4.4020153292   -1.6045561077
 16         -5.4697980412   -1.4288814272    4.4020137746   -1.6045558818
 17         -5.4697994496   -1.4288822223    4.4020129668   -1.6045557657
 18         -5.4698001930   -1.4288826382    4.4020125465   -1.6045557059
 19         -5.4698005858   -1.4288828561    4.4020123274   -1.6045556751
 20         -5.4698007933   -1.4288829704    4.4020122131   -1.6045556592
 21         -5.4698009031   -1.4288830304    4.4020121533   -1.6045556509
 22         -5.4698009612   -1.4288830620    4.4020121220   -1.6045556467
Atom SCF converged after  22 iterations to a total energy of     -5.46980096

Atom SCF Calculation for H  : Z (AE atom) =   1 : Z (PS atom) =   1
Config String: 1s1
Orbitals (num,occ):  1     1.00
Orbitals   (num,l):  1        0
Real-space Grid (nr,dr,rmax): 1377    0.0065406977    9.0000000000
Spherical Bessel Basis (nsws,lmax,cutoff):   37    1  183.0099912382
Confining potential (l,width,scale):  0    3.0000000000  100.0000000000
  1         -0.3687944832   -0.2607687933    0.2820952946   -0.2613406499
  2         -0.4328656062   -0.2590521405    0.2895573663   -0.2701762133
  3         -0.4633856573   -0.2560091938    0.2934204754   -0.2757429988
  4         -0.4750266404   -0.2549676794    0.2946557510   -0.2779015032
  5         -0.4793045155   -0.2546870695    0.2949704774   -0.2786577123
  6         -0.4808919118   -0.2546234645    0.2950332622   -0.2789201171
  7         -0.4814942533   -0.2546130669    0.2950388368   -0.2790132353
  8         -0.4817280090   -0.2546133926    0.2950352123   -0.2790473458
  9         -0.4818204053   -0.2546148712    0.2950319888   -0.2790602287
 10         -0.4818574273   -0.2546158825    0.2950301416   -0.2790652181
 11         -0.4818724050   -0.2546164247    0.2950292178   -0.2790671871
 12         -0.4818785049   -0.2546166894    0.2950287833   -0.2790679748
 13         -0.4818810009   -0.2546168128    0.2950285855   -0.2790682928
 14         -0.4818820255   -0.2546168689    0.2950284970   -0.2790684221
 15         -0.4818824471   -0.2546168940    0.2950284580   -0.2790684748
 16         -0.4818826210   -0.2546169051    0.2950284408   -0.2790684964
 17         -0.4818826928   -0.2546169100    0.2950284333   -0.2790685053
Atom SCF converged after  17 iterations to a total energy of     -0.48188269

Atom SCF Calculation for Li : Z (AE atom) =   3 : Z (PS atom) =   3
Config String: 1s2 2s1 2p0
Orbitals (num,occ):  3     2.00 1.00 0.00
Orbitals   (num,l):  3        0    0    1
Real-space Grid (nr,dr,rmax): 1377    0.0065406977    9.0000000000
Spherical Bessel Basis (nsws,lmax,cutoff):   37    2  183.0099912382
Confining potential (l,width,scale):  0    3.0000000000  100.0000000000
Confining potential (l,width,scale):  1    3.0000000000  100.0000000000
  1         -6.1314629607   -4.7499359229    2.5388576516   -1.0480231927
  2         -7.0450508208   -4.1702030791    2.9795337774   -1.2623862962
  3         -7.3518474013   -3.9564527259    3.2037296734   -1.3880788964
  4         -7.4613386962   -3.8947565558    3.2914990517   -1.4402825036
  5         -7.5001516047   -3.8789668192    3.3221434609   -1.4602864917
  6         -7.5136113510   -3.8755528126    3.3322769691   -1.4678164580
  7         -7.5181182589   -3.8751724459    3.3354399675   -1.4706394447
  8         -7.5195538340   -3.8753832694    3.3363346353   -1.4716958846
  9         -7.5199777516   -3.8756112412    3.3365363545   -1.4720903919
 10         -7.5200869011   -3.8757624244    3.3365501247   -1.4722372325
 11         -7.5201065703   -3.8758489541    3.3365264569   -1.4722916218
 12         -7.5201049812   -3.8758952022    3.3365040630   -1.4723116262
 13         -7.5201006323   -3.8759190019    3.3364892955   -1.4723189110
 14         -7.5200980758   -3.8759285770    3.3364824548   -1.4723210036
 15         -7.5200963811   -3.8759342877    3.3364781194   -1.4723220111
 16         -7.5200953120   -3.8759376792    3.3364754203   -1.4723224913
 17         -7.5200946593   -3.8759396866    3.3364737619   -1.4723227171
 18         -7.5200942701   -3.8759408718    3.3364727530   -1.4723228213
 19         -7.5200940419   -3.8759415700    3.3364721439   -1.4723228682
 20         -7.5200939099   -3.8759419808    3.3364717784   -1.4723228886
 21         -7.5200938343   -3.8759422222    3.3364715600   -1.4723228969
Atom SCF converged after  21 iterations to a total energy of     -7.52009383

Determining parallel strategy ...
... using space-filling curve
... NGWF load balancing: max     17;  min     13;  average     15
... Projector load balancing: max     34;  min     25;  average     29
... done
Calculating Ewald energy ...
              Ewald: real-space energy =   38565.630564
        Ewald: reciprocal-space energy =   38518.320353
         Ewald: (sum_charge)**2 Energy =    2992.124542
         Ewald: (sum_charge**2) Energy =     260.150911
                          Ewald Energy =   73831.675464
Basis initialisation ...... NGWF spheres initialised
... Projector spheres initialised
... NGWF tight boxes initialised
... Projector tight boxes initialised
... Tight-boxes gathered
... NGWF basis size (local,global):     295513  46887828
... PAW projector initialisation
... done

============================= Charge Augmentation ==============================
                           Aug box size:   13 x  13 x  13
================================================================================

========================== Sparse matrix information ===========================
                        Overlap matrix filling:  37.32%
                        Density kernel filling: 100.00%
              NGWF-Proj overlap matrix filling:  10.35%
                    Aug Overlap matrix filling:  41.98%
                    Hamiltonian matrix filling:  41.98%
                  NGWF diagonal matrix filling:   0.17%
                             KS matrix filling: 100.00% 
                           KSKS matrix filling: 100.00% 
================================================================================

Sparse matrix initialisation ... done
NGWF initialisation ...... done
============ Calculation of NGWF S^-1 using Hotelling algorithm ================ 
         Iteration  |  Frobenius norm and Maximum abs value    (of I-S*S_n^-1)   
               1       0.47991498E+02     0.99779899E+00
               2       0.47784163E+02     0.99560682E+00
               3       0.47394343E+02     0.99124848E+00
               4       0.46700259E+02     0.98263191E+00
               5       0.45570251E+02     0.96577246E+00
               6       0.43938275E+02     0.93337954E+00
               7       0.41824838E+02     0.87300670E+00
               8       0.39243959E+02     0.81089398E+00
               9       0.36248216E+02     0.79575458E+00
              10       0.33110576E+02     0.77653142E+00
              11       0.30033766E+02     0.75118914E+00
              12       0.26606271E+02     0.73195731E+00
              13       0.22201034E+02     0.70161804E+00
              14       0.16636416E+02     0.66379304E+00
              15       0.10696177E+02     0.59878781E+00
              16       0.61653541E+01     0.49372812E+00
              17       0.37213636E+01     0.38210673E+00
              18       0.22187392E+01     0.30117322E+00
              19       0.11135970E+01     0.21243392E+00
              20       0.42600286E+00     0.11959835E+00
              21       0.11743094E+00     0.40353899E-01
              22       0.13177701E-01     0.46315389E-02
              23       0.17356935E-03     0.61018486E-04
              24       0.30126318E-07     0.10590941E-07
              25       0.80261789E-13     0.10991208E-13
================================================================================
Calculating core density ...
================================= Core Density =================================
               Core den box size:   21 x  21 x  21
================================================================================
 ... done
Up spin density kernel initialisation ...... done
Down spin density kernel initialisation ...... done

Writing density kernel to file "56/592nano.dkn" ... done

>>> Optimising kernel for current NGWFs:

--------------------------- Ensemble-DFT optimisation --------------------------
Running ScaLAPACK on  160 processor(s).

--------------------------------------------------------------------------------
  Iter                              Commutator    Free_energy(A=E-TS)     DeltaA
#    0                          0.001435097696   -3248.13662792104560  -3.25E+03

Step                       =       0.381966011250
Energy (E)                 =   -3248.080458545863
Entropy (-TS)              =      -0.056169375183
Free energy (A=E-TS)       =   -3248.136627921046
Est. 0K Energy 0.5*(E+A)   =   -3248.108543233454
Residual Non-orthogonality =       0.000000000000
Residual N_electrons       =       0.000000000000

Spin          Integrated_Ne            Fermi_level     Delta_Fermi_level
   1      1106.000000000000        -0.220639553472             -2.21E-01
   2      1106.000000000000        -0.220639553473             -2.21E-01

                           Spin 1           |                 Spin 2           |
     Orb |    H-eigenvalues     Occupancies |    H-eigenvalues     Occupancies |
       1 |    -1.9096680263    1.0000000000 |    -1.9096680263    1.0000000000 | 
                          ------                             ------
    1102 |    -0.2249448464    0.7956790802 |    -0.2249448464    0.7956790802 | 
    1103 |    -0.2236567006    0.7216658278 |    -0.2236567006    0.7216658278 | 
    1104 |    -0.2224212640    0.6370584743 |    -0.2224212640    0.6370584743 | 
    1105 |    -0.2217202003    0.5844920156 |    -0.2217202003    0.5844920156 | 
    1106 |    -0.2216089592    0.5759364836 |    -0.2216089592    0.5759364836 | 
                 - Gap at zero temperature - |     - Gap at zero temperature -
                  Finite temp. Fermi level   |      Finite temp. Fermi level  
    1107 |    -0.2196302730    0.4209912424 |    -0.2196302730    0.4209912424 | 
    1108 |    -0.2194701575    0.4087183762 |    -0.2194701575    0.4087183762 | 
    1109 |    -0.2185805189    0.3429463362 |    -0.2185805189    0.3429463362 | 
    1110 |    -0.2176608593    0.2807797114 |    -0.2176608593    0.2807797114 | 
    1111 |    -0.2165444439    0.2153229232 |    -0.2165444439    0.2153229232 | 
                          ------                             ------
    2324 |     0.5529097230    0.0000000000 |     0.5529097230    0.0000000000 | 

                            |  Abs_value |  Threshold | Converged
     Delta_Free_energy/atom |   5.01E+00 |   1.00E-06 |        No
     Delta_Energy/atom      |   5.01E+00 |   1.00E-04 |        No
     Delta_Entropy/atom     |   8.67E-05 |   1.00E-04 |       Yes
     Commutator             |   1.44E-03 |   1.00E-05 |        No
     Delta_Fermi_level      |   2.21E-01 |   1.00E-03 |        No

  Line search of the free energy minimum:
[...]
 H   317 -- Li  615       -0.02      0.00      5.64460
 C   156 -- Li  603       -0.07      0.00      5.64638
 H   276 -- Li  593       -0.01      0.00      5.64921
 C   378 -- C   525       -0.04      0.00      5.65035
 H   297 -- Li  595       -0.02     -0.00      5.65379
 H   463 -- Li  630       -0.02     -0.00      5.65575
 C   205 -- Li  647       -0.06      0.00      5.65619
 H   275 -- Li  608       -0.01     -0.00      5.65728
 H   458 -- Li  617       -0.01     -0.00      5.66026
 C   382 -- C   527       -0.04      0.00      5.66108
 C   412 -- C   574       -0.03     -0.00      5.66876
=============================================================


============== Orbital energy and occupancy information for spin 1 =============

      Total number of orbitals:    2324
        Occupancy sum (kernel):    1105.999999969
   Occupancy sum (eigenvalues):    1105.999999969
                 HOMO-LUMO gap:       0.001554660 Eh
                 Mid-gap level:      -0.073898131 Eh

                        Orbital | Energy (Eh) | Occupancy
                            1    -1.847838711   1.0000000
                        .......   ...........   .........
                         1097    -0.090436735   0.9930404
                         1098    -0.086199205   0.9744108
                         1099    -0.084489308   0.9573397
                         1100    -0.083208294   0.9348846
                         1101    -0.081418621   0.8888418
                         1102    -0.079394812   0.8275725
                         1103    -0.076748644   0.6585313
                         1104    -0.075932265   0.6058905
                         1105    -0.075086072   0.5365425
                         1106    -0.074675461   0.5046115
                        ....... -- gap at 0K -- .........
                         1107    -0.073120800   0.3906254
                         1108    -0.072631421   0.3433647
                         1109    -0.072285093   0.3318984
                         1110    -0.069794789   0.1659783
                         1111    -0.069322244   0.1571542
                         1112    -0.068477178   0.1139454
                         1113    -0.068066183   0.1199177
                         1114    -0.067382599   0.0914523
                         1115    -0.066964309   0.0788830
                         1116    -0.066221812   0.0712306
                        .......   ...........   .........
                         2324     0.766776316   0.0000000

================================================================================

============== Orbital energy and occupancy information for spin 2 =============

      Total number of orbitals:    2324
        Occupancy sum (kernel):    1106.000000031
   Occupancy sum (eigenvalues):    1106.000000031
                 HOMO-LUMO gap:       0.000489379 Eh
                 Mid-gap level:      -0.072876111 Eh

                        Orbital | Energy (Eh) | Occupancy
                            1    -1.847838711   1.0000000
                        .......   ...........   .........
                         1098    -0.086199205   0.9744108
                         1099    -0.084489308   0.9573397
                         1100    -0.083208293   0.9348846
                         1101    -0.081418621   0.8888418
                         1102    -0.079394811   0.8275725
                         1103    -0.076748643   0.6585313
                         1104    -0.075932266   0.6058906
                         1105    -0.075086071   0.5365425
                         1106    -0.074675461   0.5046115
                         1107    -0.073120801   0.3906254
                        ....... -- gap at 0K -- .........
                         1108    -0.072631422   0.3433646
                         1109    -0.072285093   0.3318984
                         1110    -0.069794790   0.1659783
                         1111    -0.069322244   0.1571542
                         1112    -0.068477178   0.1139454
                         1113    -0.068066182   0.1199177
                         1114    -0.067382599   0.0914523
                         1115    -0.066964309   0.0788830
                         1116    -0.066221812   0.0712306
                         1117    -0.065676554   0.0582758
                        .......   ...........   .........
                         2324     0.766776316   0.0000000

================================================================================

===================== Writing canonical molecular orbitals =====================
    Spin 1
| Orbital  Energy (eV)  Norm     |
| HOMO     -2.03202269  1.000000 | Writing "56/592nano_HOMO_UP.cube" ... done
Writing "56/592nano_HOMO_UP.dx" ... done
| LUMO     -1.98971823  1.000000 | Writing "56/592nano_LUMO_UP.cube" ... done
Writing "56/592nano_LUMO_UP.dx" ... done
================================================================================

===================== Writing canonical molecular orbitals =====================
    Spin 2
| Orbital  Energy (eV)  Norm     |
| HOMO     -1.98971823  1.000000 | Writing "56/592nano_HOMO_DN.cube" ... done
Writing "56/592nano_HOMO_DN.dx" ... done
| LUMO     -1.97640155  1.000000 | Writing "56/592nano_LUMO_DN.cube" ... done
Writing "56/592nano_LUMO_DN.dx" ... done
================================================================================

================== Local Density of States (LDOS) calculation ==================
Writing "56/592nano_UP_LDOS.txt" ...  done
================================================================================

================== Local Density of States (LDOS) calculation ==================
Writing "56/592nano_DN_LDOS.txt" ...  done
================================================================================
 
=============== Density of States (DOS) calculation for UP spin ================
Writing "56/592nano_UP_DOS.txt" ...  done
================================================================================
 
============== Density of States (DOS) calculation for DOWN spin ===============
Writing "56/592nano_DN_DOS.txt" ...  done
================================================================================
 
Writing bands to file "56/592nano.val_bands" ... done
 
================ Projected Density of States (pDOS) calculation ================
 
Constructing AM resolved functions  ...... done
Writing NGWF plot files in formats: CUBE DX ...  done
 
Performing overlap integrals ...  done
 
Computing pDOS weights ...  done
 
All bands spilling parameter =   2.74 %
Occupancy-weighted spilling parameter =   0.74 %
 
 => Outputting data for OptaDOS <=
 
Writing pDOS weights to file "56/592nano.val_pdos_bin" ... done
 
Writing band gradients to file "56/592nano.val_dome_bin" ... done
 
Writing Castep output cell file to "56/592nano-out.cell" ... done
 
 => Computing Gaussian smeared pDOS for UP spin<= 
Writing "56/592nano_UP_PDOS.txt" ...  done
 
 => Computing Gaussian smeared pDOS for DOWN spin<= 
Writing "56/592nano_DN_PDOS.txt" ...  done
 
 => Computing Occupancy-weighted Gaussian smeared pDOS for UP spin<= 
Writing "56/592nano_occ_UP_PDOS.txt" ...  done
  => Band centres for UP spin channel: 
 S band centre of group 1:  -20.063045 eV
 P band centre of group 1:   -8.328821 eV
  Band centres for UP spin channel done. <= 
  => Integrated number of electrons in each AM band for UP spin channel: 
 S num electrons of group 1:  322.229051
 P num electrons of group 1:  775.580342
  Integrated number of electrons for UP spin channel done. <= 
 
 => Computing Occupancy-weighted Gaussian smeared pDOS for DOWN spin<= 
Writing "56/592nano_occ_DN_PDOS.txt" ...  done
  => Band centres for DOWN spin channel: 
 S band centre of group 1:  -20.063045 eV
 P band centre of group 1:   -8.328821 eV
  Band centres for DOWN spin channel done. <=
  => Integrated number of electrons in each AM band for DOWN spin channel: 
 S num electrons of group 1:  322.229051
 P num electrons of group 1:  775.580342
  Integrated number of electrons for DOWN spin channel done. <=
================================================================================

------------------------------ TIMING INFORMATION ------------------------------
AVERAGE TIME:    8052.128s on    160 proc(s)                                    
TOTAL TIME:      8052.173s on    160 proc(s)                                    
================= AVERAGE TIMINGS FROM ALL PROCS (CUMULATIVE) ==================
|| TAG                                    #calls    cpu time   %total  Gflops ||
|| work_imbalance                       :     1        0.00s   0.000%  ------ ||
|| sparse_set_to_garbage                :   192        0.01s   0.000%  ------ ||
|| paw_tcore_density                    :     1        0.01s   0.000%  ------ ||
|| paw_dij_hartree                      :   243        0.01s   0.000%  ------ ||
|| paw_sphere_density_on_grid           :     1        0.01s   0.000%  ------ ||
|| basis_extract_function_from_box      :   319        0.02s   0.000%  ------ ||
|| ngwfs_initialise_from_radial         :     2        0.03s   0.000%  ------ ||
|| ewald_calculate_energy               :     1        0.09s   0.001%  ------ ||
|| pseudo_make_structure_factor         :     1        0.24s   0.003%  ------ ||
|| paw_dataset_init                     :     3        0.28s   0.003%  ------ ||
|| paw_tcore_hartree_on_grid            :     1        0.38s   0.005%  ------ ||
|| density_init_guess_real              :     1        0.70s   0.009%  ------ ||
|| restart_kernel_write                 :    12        0.95s   0.012%  ------ ||
|| dense_normal_eigensolve              :     1        0.95s   0.012%  ------ ||
|| sparse_init                          :     1        1.12s   0.014%  ------ ||
|| paw_species_calc_proj_prec_mat       :     1        1.52s   0.019%  ------ ||
|| augmentation_screen_dij              :   167        2.50s   0.031%  ------ ||
|| sw_init                              :     1        5.01s   0.062%  ------ ||
|| ngwf_gradient_coeffs                 :    11        5.72s   0.071%  ------ ||
|| paw_dij_xc                           :   243        6.03s   0.075%  ------ ||
|| sparse_embed_hotelling_invert_embed  :    22        6.21s   0.077%  ------ ||
|| basis_copy_function_to_box           :  7480        8.23s   0.102%  ------ ||
|| hartree_on_grid                      :   162       10.38s   0.129%  ------ ||
|| fourier_apply_box_pair               :   803       11.72s   0.146%  1.810k ||
|| aug_nonlocal_mat                     :   232       12.31s   0.153%  ------ ||
|| projectors_init_fftbox_recip         :    68       17.26s   0.214%  ------ ||
|| augmentation_density_on_grid         :   162       22.62s   0.281%  ------ ||
|| sparse_trace                         :  8186       27.86s   0.346%  ------ ||
|| projectors_func_ovlp_box             :    23       42.72s   0.531%  ------ ||
|| basis_dot_function_with_box          : 2.250M      43.41s   0.539%  ------ ||
|| integrals_kinetic                    :    22       54.79s   0.680%  ------ ||
|| eigenstates_pdos                     :     1       74.14s   0.921%  ------ ||
|| function_ops_brappd_ketppd           :    46       95.33s   1.184%  ------ ||
|| hamiltonian_energy_components        :     3      111.86s   1.389%  ------ ||
|| eigenstates_calculate                :     1      140.00s   1.739%  ------ ||
|| basis_add_function_to_box            : 5.191M     142.25s   1.767%  ------ ||
|| dense_eigensolve                     :   270      142.29s   1.767%  ------ ||
|| fourier_apply_cell_forward           :  5958      148.18s   1.840% 139.946 ||
|| restart_ngwfs_tightbox_output        :    10      153.21s   1.903%  ------ ||
|| fourier_apply_cell_backward          :  6603      219.95s   2.732% 104.488 ||
|| cell_grid_deposit_box_real           : 12081      235.75s   2.928%  ------ ||
|| sparse_product                       : 11988      245.17s   3.045%  ------ ||
|| cell_grid_extract_box_real           :  4854      358.03s   4.446%  ------ ||
|| projectors_gradient_batch            :    22      371.77s   4.617%  ------ ||
|| density_batch_row_sums               :   324      382.59s   4.751%  ------ ||
|| integrals_locpot_mat_els_batch       :   310      415.32s   5.158%  ------ ||
|| xc_energy_potential                  :   161      416.36s   5.171%  ------ ||
|| edft_diag_ngwf_ham                   :   268      430.13s   5.342%  ------ ||
|| density_fftbox_deposit_to_cell       :  5508      469.50s   5.831%  ------ ||
|| density_fftbox_interpolate_multiply  :  5508      508.11s   6.310%  ------ ||
|| fourier_apply_box                    : 24361      540.53s   6.713%  3.924k ||
|| nlxc_vdw_energy                      :   322      557.94s   6.929%  ------ ||
|| edft_apply_smearing_operator         :   134      673.56s   8.365%  ------ ||
|| potential_apply_to_ngwf_batch        :   310      734.34s   9.120%  ------ ||
|| properties_calculate                 :     1      931.46s  11.568%  ------ ||
|| projectors_grad_precond_batch        :    22      934.29s  11.603%  ------ ||
|| integrals_locpot_dbl_grid            :   155     1152.33s  14.311%  ------ ||
|| density_batch_interp_deposit         :   324     1299.47s  16.138%  ------ ||
|| ngwf_gradient_build_batch            :    22     1447.30s  17.974%  ------ ||
|| ngwf_gradient_batch                  :    22     1579.77s  19.619%  ------ ||
|| density_on_dbl_grid                  :   162     1786.09s  22.182%  ------ ||
|| ngwf_gradient_lnv                    :    11     2236.82s  27.779%  ------ ||
|| hamiltonian_lhxc_calculate           :   157     2246.20s  27.896%  ------ ||
|| edft_calculate                       :    11     4076.48s  50.626%  ------ ||
|| ngwf_cg_optimise                     :     1     7089.39s  88.044%  ------ ||
|| total_time                           :     1     8052.13s 100.000%  ------ ||
================================================================================
==================== AVERAGE TIMINGS FROM ALL PROCS (SELF) =====================
++ TAG                                    #calls    cpu time   %total  Gflops ++
++ nlxc_vdw_energy                      :   322       -4.38s  -0.054%  ------ ++
++ work_imbalance                       :     1        0.00s   0.000%  ------ ++
++ paw_tcore_density                    :     1        0.00s   0.000%  ------ ++
++ sparse_set_to_garbage                :   192        0.01s   0.000%  ------ ++
++ paw_sphere_density_on_grid           :     1        0.01s   0.000%  ------ ++
++ paw_tcore_hartree_on_grid            :     1        0.01s   0.000%  ------ ++
++ paw_dij_hartree                      :   243        0.01s   0.000%  ------ ++
++ basis_extract_function_from_box      :   319        0.02s   0.000%  ------ ++
++ ngwfs_initialise_from_radial         :     2        0.03s   0.000%  ------ ++
++ ngwf_gradient_coeffs                 :    11        0.05s   0.001%  ------ ++
++ ewald_calculate_energy               :     1        0.09s   0.001%  ------ ++
++ sparse_embed_hotelling_invert_embed  :    22        0.18s   0.002%  ------ ++
++ pseudo_make_structure_factor         :     1        0.24s   0.003%  ------ ++
++ paw_dataset_init                     :     3        0.28s   0.003%  ------ ++
++ density_init_guess_real              :     1        0.38s   0.005%  ------ ++
++ hartree_on_grid                      :   162        0.61s   0.008%  ------ ++
++ aug_nonlocal_mat                     :   232        0.76s   0.009%  ------ ++
++ restart_kernel_write                 :    12        0.95s   0.012%  ------ ++
++ dense_normal_eigensolve              :     1        0.95s   0.012%  ------ ++
++ sparse_init                          :     1        1.12s   0.014%  ------ ++
++ paw_species_calc_proj_prec_mat       :     1        1.27s   0.016%  ------ ++
++ hamiltonian_energy_components        :     3        1.89s   0.024%  ------ ++
++ augmentation_screen_dij              :   167        2.09s   0.026%  ------ ++
++ main_program_(onetep.F90)            :     1        2.13s   0.026%  ------ ++
++ integrals_locpot_dbl_grid            :   155        2.68s   0.033%  ------ ++
++ sw_init                              :     1        5.01s   0.062%  ------ ++
++ paw_dij_xc                           :   243        6.03s   0.075%  ------ ++
++ augmentation_density_on_grid         :   162        6.28s   0.078%  ------ ++
++ basis_copy_function_to_box           :  7480        8.23s   0.102%  ------ ++
++ fourier_apply_box_pair               :   803       11.72s   0.146%  1.810k ++
++ projectors_init_fftbox_recip         :    68       17.26s   0.214%  ------ ++
++ projectors_func_ovlp_box             :    23       25.93s   0.322%  ------ ++
++ sparse_trace                         :  8186       27.86s   0.346%  ------ ++
++ basis_dot_function_with_box          : 2.250M      43.41s   0.539%  ------ ++ (!) overhead: ~   5.6%
++ edft_calculate                       :    11       44.25s   0.550%  ------ ++
++ integrals_kinetic                    :    22       47.41s   0.589%  ------ ++
++ eigenstates_calculate                :     1       48.81s   0.606%  ------ ++
++ eigenstates_pdos                     :     1       60.37s   0.750%  ------ ++
++ xc_energy_potential                  :   161       62.74s   0.779%  ------ ++
++ ngwf_gradient_build_batch            :    22       64.67s   0.803%  ------ ++
++ hamiltonian_lhxc_calculate           :   157       74.91s   0.930%  ------ ++
++ ngwf_gradient_batch                  :    22       84.70s   1.052%  ------ ++
++ function_ops_brappd_ketppd           :    46       95.33s   1.184%  ------ ++
++ density_on_dbl_grid                  :   162      104.03s   1.292%  ------ ++
++ basis_add_function_to_box            : 5.191M     142.25s   1.767%  ------ ++ (!) overhead: ~   3.9%
++ dense_eigensolve                     :   270      142.29s   1.767%  ------ ++
++ fourier_apply_cell_forward           :  5958      148.18s   1.840% 139.946 ++
++ restart_ngwfs_tightbox_output        :    10      153.21s   1.903%  ------ ++
++ ngwf_cg_optimise                     :     1      160.91s   1.998%  ------ ++
++ density_fftbox_interpolate_multiply  :  5508      196.32s   2.438%  ------ ++
++ fourier_apply_cell_backward          :  6603      219.95s   2.732% 104.488 ++
++ edft_apply_smearing_operator         :   134      228.80s   2.842%  ------ ++
++ density_fftbox_deposit_to_cell       :  5508      234.99s   2.918%  ------ ++
++ cell_grid_deposit_box_real           : 12081      235.75s   2.928%  ------ ++
++ sparse_product                       : 11988      245.17s   3.045%  ------ ++
++ density_batch_interp_deposit         :   324      287.53s   3.571%  ------ ++
++ edft_diag_ngwf_ham                   :   268      289.02s   3.589%  ------ ++
++ density_batch_row_sums               :   324      290.69s   3.610%  ------ ++
++ cell_grid_extract_box_real           :  4854      358.03s   4.446%  ------ ++
++ projectors_gradient_batch            :    22      360.41s   4.476%  ------ ++
++ integrals_locpot_mat_els_batch       :   310      379.30s   4.711%  ------ ++
++ potential_apply_to_ngwf_batch        :   310      441.52s   5.483%  ------ ++
++ properties_calculate                 :     1      528.84s   6.568%  ------ ++
++ fourier_apply_box                    : 24361      540.53s   6.713%  3.924k ++
++ ngwf_gradient_lnv                    :    11      651.33s   8.089%  ------ ++
++ projectors_grad_precond_batch        :    22      919.96s  11.425%  ------ ++
================================================================================
(!) WARNING: You're wasting precious cycles calling timer. 
             Each pair of timer_clock calls itself cost   1.08 microseconds!
Overhead of generating timer report: 
- 0 ms averaging over threads,
- 19 ms ensuring consistency across MPI ranks,
- 0 ms printing in order.

Job completed: 18-12-2021 04:40 (-0000)

