 +---------------------------------------------------------------+
 |                                                               |
 |        ####### #     # ####### ####### ####### ######         |
 |        #     # ##    # #          #    #       #     #        |
 |        #     # # #   # #          #    #       #     #        |
 |        #     # #  #  # #####      #    #####   ######         |
 |        #     # #   # # #          #    #       #              |
 |        #     # #    ## #          #    #       #              |
 |        ####### #     # #######    #    ####### #              |
 |                                                               |
 |        Linear-Scaling Ab Initio Total Energy Program          |
 |                                                               |
 |          Release for academic collaborators of ODG            |
 |                                             Version 5.3.2.12  |
 |                                                               |
 +---------------------------------------------------------------+
 |                                                               |
 |  Authors:                                                     |
 |  Jacek Dziedzic, Peter D. Haynes, Nicholas D. M. Hine,        |
 |  Arash. A. Mostofi, Mike C. Payne and Chris-Kriton Skylaris   |
 |                                                               |
 |  Contributors:                                                |
 |  J. Aarons, L. Andrinopoulos, P. W. Avraam, R. A. Bell,       |
 |  A. Bhandari, G. A. Bramley, R. J. Charlton, S. J. Clark,     |
 |  R. J. Clements, G. C. Constantinescu, F. Corsetti,           |
 |  N. Corsini, O. Dieguez, S. M. M. Dubois, K. K. B. Duff,      |
 |  J. M. Escartin, A. Greco, H. Helal, Q. O. Hill, L. P. Lee,   |
 |  J.-H. Li, E. B. Linscott, G. Moynihan, D. D. O`Regan,        |
 |  O. K. Okan, M. J. S. Phipps, C. J. Pickard,                  |
 |  J. C. A. Prentice, M. I. J. Probert, L. E. Ratcliff,         |
 |  M. Robinson, A. Ruiz Serrano, J. S. Spencer, E. W. Tait,     |
 |  G. Teobaldi, D. Turban, V. Vitale, K. A. Wilkinson,          |
 |  C. Weber, J. C. Womack, N. Yeung and T. J. Zuehlsdorff       |
 |                                                               |
 |                                   Copyright (c) 2004-2020     |
 |                                                               |
 |  Please cite:                                                 |
 |  "Introducing ONETEP: Linear-scaling density functional       |
 |   simulations on parallel computers".                         |
 |   C.-K. Skylaris, P. D. Haynes, A. A. Mostofi, M. C. Payne.   |
 |   J. Chem. Phys. 122 084119 (2005).                           |
 |                                                               |
 |          in all publications arising from your use of ONETEP. |
 |                                                               |
 +---------------------------------------------------------------+
 |                                                               |
 |   ONETEP is based on developments described in the following  |
 |   publications:                                               |
 |                                                               |
 |  "Nonorthogonal generalized Wannier function pseudopotential  |
 |   plane-wave method".                                         |
 |   C.-K. Skylaris, A. A. Mostofi, P. D. Haynes, O. Dieguez,    |
 |   M. C. Payne.                                                |
 |   Phys. Rev. B 66 035119 (2002).                              |
 |                                                               |
 |  "Preconditioned iterative minimization for linear-scaling    |
 |   electronic structure calculations".                         |
 |   A. A. Mostofi, P. D. Haynes, C.-K. Skylaris, M. C. Payne.   |
 |   J. Chem. Phys. 119(17), pp.8842-8848 (2003).                |
 |                                                               |
 |  "Total-energy calculations on a real space grid with         |
 |   localized functions and a plane-wave basis".                |
 |   A. A. Mostofi, C.-K. Skylaris, P. D. Haynes, M. C. Payne.   |
 |   Comput. Phys. Commun. 147, pp.788-802 (2002).               |
 |                                                               |
 |  "Accurate kinetic energy evaluation in electronic structure  |
 |   calculations with localized functions on real space grids"  |
 |   C.-K. Skylaris, A. A. Mostofi, P. D. Haynes, C. J. Pickard, |
 |   M. C. Payne.                                                |
 |   Comput. Phys. Commun. 140, pp.315-322 (2001).               |
 |                                                               |
 |  "Accurate ionic forces and geometry optimization in linear-  |
 |   scaling density-functional theory with local orbitals"      |
 |   N. D. M. Hine, M. Robinson, P. D. Haynes, C.-K. Skylaris,   |
 |   M. C. Payne, and A. A. Mostofi.                             |
 |   Phys. Rev. B 83 195102 (2011).                              |
 |                                                               |
 +---------------------------------------------------------------+

Job started: 30-10-2020 19:20 (-0000)
 
Reading parameters from file "52/592nano.dat" ...... done

If your calculation crashes here, before "Checking processes and threads..."
is displayed, then your stack size is insufficient.
If so, use "ulimit -s unlimited" at runtime.
You can disable this check with "check_stack_size F".

Checking processes and threads...
   Determining the default number of threads...
      No default threads set at compilation time: defaulting to 1.
      OpenMP library call suggests 4 threads.
      Hybrid MPI-OpenMP compilation detected.
      Number of MPI processes > 1.
      OMP_NUM_THREADS environment variable present and
      its value matches the one obtained from the OpenMP library call.
      Using this value as default.
      Default threads: 4
      Default applies to threads_max and threads_num_fftboxes.
      Settings in the input file override this default.
   ... done

   Running with 160 MPI processes.
   There are 10 MPI processes running on the same node as the root process.
   Each MPI process is using: 
               1 threads for simulation cell FFTs.
               1 threads for parallel FFT box operations.
               4 threads for loops over batched FFT box operations.
               4 threads in other parallel regions.
... done

Basic input checks...
Resetting ngwf_cg_rotate to TRUE for EDFT calculations
... done

Reading geometry and species blocks from file "52/592nano.dat" ...    
  Number of PPD points along a3 set to 1.  This is 
  the default value, it may have been provided also in the input file.
... done
 Writing xyz coordinates to file "52/592nano.xyz" ... done


--------------------------------------------------------------------------------
---------------------------------- INPUT FILE ----------------------------------
--------------------------------------------------------------------------------

task : singlepoint                                                              
do_properties : true                                                            
ddec_classical_hirshfeld T                                                      
dx_format T                                                                     
edft T                                                                          
edft_spin_fix 3                                                                 
output_detail VERBOSE                                                           
write_xyz T                                                                     
dispersion 4                                                                    
xc_functional PBE                                                               
cutoff_energy 830 eV                                                            
paw T                                                                           
geom_disp_tol 0.015 bohr                                                        
geom_energy_tol 1.5E-6 hartree                                                  
geom_force_tol 0.003 "ha/bohr"                                                  
EDFT_MAXIT 30                                                                   
pdos_max_l = 2                                                                  
dos_smear  0.1 eV                                                               
popn_calculate T                                                                
PDOS_PSEUDOATOMIC T                                                             
PDOS_REDUCE_SWS F                                                               
PDOS_CONSTRUCT_BASIS F                                                          
PDOS_LOWDIN T                                                                   
PDOS_ORTH_ATOM_BLOCKS F                                                         
PDOS_LCAO_OPTIMIZE F                                                            
pdos_optados_output T                                                           
homo_plot 0                                                                     
lumo_plot 0                                                                     
homo_dens_plot -1                                                               
lumo_dens_plot -1                                                               
%BLOCK SPECIES                                                                  
C C 6 4 9.0                                                                     
H H 1 1 9.0                                                                     
Li Li 3 5 9.0                                                                   
%ENDBLOCK SPECIES                                                               
%BLOCK SPECIES_POT                                                              
C "~/pp/paw/c_pbe_abinit.paw"                                                   
H "~/pp/paw/h_pbe_abinit.paw"                                                   
Li "~/pp/paw/li_pbe_abinit.paw"                                                 
%ENDBLOCK SPECIES_POT                                                           
%BLOCK SPECIES_ATOMIC_SET                                                       
C "SOLVE conf=2s2 2p2"                                                          
H "SOLVE conf=1s1"                                                              
Li "SOLVE conf=1s2 2s1 2p0"                                                     
%ENDBLOCK SPECIES_ATOMIC_SET                                                    
%BLOCK SPECIES_LDOS_GROUPS                                                      
C                                                                               
H                                                                               
Li                                                                              
%ENDBLOCK SPECIES_LDOS_GROUPS                                                   
%BLOCK LATTICE_CART                                                             
94.486315650000      0.000000000000       0.000000000000                        
0.000000000000       94.486315650000      0.000000000000                        
0.000000000000       0.000000000000       94.486315650000                       
%ENDBLOCK LATTICE_CART                                                          
%BLOCK POSITIONS_ABS                                                            
C 45.456200 50.717028 30.176963                                                 
C 45.467896 50.588245 36.292658                                                 
C 46.802752 53.063802 30.161886                                                 
C 48.173458 50.595959 36.309997                                                 
C 49.517299 48.390062 30.053447                                                 
C 49.534617 48.240739 36.270130                                                 
C 50.863847 50.735362 30.061115                                                 
C 52.238683 48.245862 36.186002                                                 
C 45.444391 55.398921 30.068444                                                 
C 45.455467 55.294987 36.279150                                                 
C 46.788667 57.737136 29.900914                                                 
C 48.177079 55.304112 36.264871                                                 
C 49.504749 53.069673 30.113152                                                 
C 49.524746 52.949653 36.310843                                                 
C 50.848625 55.413330 29.980721                                                 
C 52.234293 52.953844 36.342785                                                 
C 45.433438 50.487055 43.638234                                                 
C 45.385774 50.414495 49.656436                                                 
C 46.782726 52.830470 43.637721                                                 
C 48.090056 50.411572 49.675843                                                 
C 49.503054 48.137890 43.577363                                                 
C 49.435352 48.069895 49.753915                                                 
C 50.861915 50.493227 43.599004                                                 
C 52.131724 48.067651 49.923532                                                 
C 45.413365 55.181541 43.673494                                                 
C 45.392259 55.093469 49.764828                                                 
C 46.752063 57.525715 43.633357                                                 
C 48.093817 55.092745 49.769294                                                 
C 49.489566 52.831842 43.626263                                                 
C 49.441572 52.751461 49.731784                                                 
C 50.844873 55.169802 43.668759                                                 
C 52.137527 52.750645 49.876235                                                 
C 57.608234 48.423970 29.432272                                                 
C 57.639726 48.269826 36.408918                                                 
C 58.958562 50.771138 29.403012                                                 
C 60.353442 48.280265 36.446695                                                 
C 57.680461 48.149828 43.574777                                                 
C 57.477767 48.063459 50.561412                                                 
C 59.023584 50.516730 43.598358                                                 
C 60.184395 48.066725 50.922970                                                 
C 53.561954 50.745570 29.886361                                                 
C 53.589585 50.614862 36.324891                                                 
C 54.898433 53.090263 29.777220                                                 
C 56.295384 50.618584 36.427655                                                 
C 53.590347 50.504643 43.588110                                                 
C 53.478103 50.406027 50.000034                                                 
C 54.936629 52.857852 43.475428                                                 
C 56.162011 50.402233 50.328177                                                 
C 57.612961 43.766009 29.088605                                                 
C 57.686445 43.572735 36.300301                                                 
C 58.962643 46.085689 29.156178                                                 
C 60.439622 43.576917 36.252294                                                 
C 57.635896 43.436762 43.514373                                                 
C 57.496013 43.389444 50.735322                                                 
C 59.016177 45.801259 43.569405                                                 
C 60.192812 43.386787 51.068909                                                 
C 53.569102 46.078059 29.654835                                                 
C 53.601841 45.885918 36.282721                                                 
C 54.913331 48.413737 29.691672                                                 
C 56.318540 45.901392 36.342533                                                 
C 53.580927 45.798096 43.559853                                                 
C 53.469805 45.725099 50.137080                                                 
C 54.948682 48.152778 43.592074                                                 
C 56.151959 45.732923 50.453775                                                 
C 57.572487 57.768161 29.299763                                                 
C 57.642609 57.661230 36.412078                                                 
C 58.904636 60.127298 29.017454                                                 
C 60.380854 57.655761 36.263423                                                 
C 57.625052 57.550645 43.300265                                                 
C 57.532116 57.416095 50.473107                                                 
C 59.006720 59.934811 43.288162                                                 
C 60.253043 57.399545 50.716959                                                 
C 45.428603 64.715578 29.027196                                                 
C 45.424978 64.692937 36.184369                                                 
C 46.787922 67.054528 28.716317                                                 
C 48.140428 64.700751 36.172754                                                 
C 49.467143 62.390311 29.298309                                                 
C 49.512358 62.362614 36.265500                                                 
C 50.838280 64.753670 28.966603                                                 
C 52.247491 62.352736 36.411514                                                 
C 45.394713 64.560691 43.426562                                                 
C 45.421537 64.419282 50.589773                                                 
C 46.765697 66.948931 43.353183                                                 
C 48.110993 64.421278 50.607441                                                 
C 49.449387 62.206732 43.484775                                                 
C 49.452136 62.088733 50.377992                                                 
C 50.799514 64.574325 43.594450                                                 
C 52.134019 62.096211 50.495417                                                 
C 53.528123 60.078430 29.497050                                                 
C 53.608812 60.016850 36.350579                                                 
C 54.882007 62.446462 29.260399                                                 
C 56.298444 60.015030 36.407385                                                 
C 53.516661 59.850549 43.371702                                                 
C 53.482844 59.762905 50.305726                                                 
C 54.864245 62.197283 43.356349                                                 
C 56.199789 59.757784 50.443595                                                 
C 57.595749 53.099833 29.516703                                                 
C 57.629383 52.963549 36.531731                                                 
C 58.936487 55.456070 29.308952                                                 
C 60.356722 52.975415 36.638633                                                 
C 57.662175 52.864201 43.432918                                                 
C 57.495482 52.744170 50.500512                                                 
C 59.002470 55.211331 43.376138                                                 
C 60.210969 52.754027 50.884565                                                 
C 45.432868 60.064355 29.659008                                                 
C 45.460119 60.004020 36.251557                                                 
C 46.781771 62.390518 29.344614                                                 
C 48.145232 60.004022 36.216923                                                 
C 49.488564 57.742349 29.864006                                                 
C 49.514124 57.665028 36.158795                                                 
C 50.830518 60.077445 29.589833                                                 
C 52.254131 57.667064 36.208163                                                 
C 45.384970 59.877119 43.554782                                                 
C 45.406553 59.758963 50.101685                                                 
C 46.747916 62.218168 43.477614                                                 
C 48.101314 59.762520 50.102024                                                 
C 49.459750 57.523875 43.660773                                                 
C 49.444903 57.427999 49.933919                                                 
C 50.813208 59.868769 43.484878                                                 
C 52.142005 57.427261 50.039257                                                 
C 53.544262 55.418035 29.818302                                                 
C 53.588739 55.318482 36.346540                                                 
C 54.876082 57.764167 29.573367                                                 
C 56.294962 55.311055 36.453399                                                 
C 53.575278 55.177222 43.494151                                                 
C 53.485710 55.090517 50.019986                                                 
C 54.917147 57.529934 43.367506                                                 
C 56.173955 55.081190 50.293773                                                 
H 27.301677 41.337823 28.407029                                                 
H 28.217265 39.344586 36.079224                                                 
H 27.116344 41.087407 43.460314                                                 
H 28.180668 39.331829 50.819873                                                 
H 41.822421 30.252464 28.855638                                                 
C 42.848519 32.044843 28.918010                                                 
H 44.442373 30.046240 36.062316                                                 
H 41.738441 29.905145 43.619500                                                 
C 42.759801 31.698510 43.585958                                                 
H 44.342130 29.984377 51.016152                                                 
H 29.621313 37.249257 28.706147                                                 
C 30.651829 39.037116 28.795910                                                 
H 32.336393 37.015125 36.284523                                                 
H 33.684642 34.876473 28.971129                                                 
C 34.713847 36.664335 29.075642                                                 
H 29.467444 36.974107 43.630809                                                 
C 30.509710 38.751789 43.513857                                                 
H 32.241689 36.986144 50.859319                                                 
H 33.544172 34.601820 43.714400                                                 
C 34.577548 36.386210 43.598910                                                 
H 37.752049 32.563814 28.836728                                                 
C 38.771684 34.358259 28.954066                                                 
H 40.363401 32.416531 36.251984                                                 
H 37.614559 32.250533 43.613353                                                 
C 38.646835 34.038088 43.582276                                                 
H 40.287566 32.336375 50.959548                                                 
H 46.527879 30.282914 28.921565                                                 
H 46.482910 29.926337 43.501479                                                 
H 25.749940 48.174450 35.996100                                                 
C 27.813617 48.185648 36.060396                                                 
H 25.812846 48.081399 51.072892                                                 
C 27.873281 48.086433 50.903591                                                 
H 25.825534 43.424449 35.898449                                                 
H 27.294057 46.029094 28.488777                                                 
C 27.889055 43.451442 35.991602                                                 
H 25.818272 43.401927 50.932196                                                 
H 27.127373 45.813751 43.420310                                                 
C 27.882426 43.400579 50.842312                                                 
H 25.771702 57.663703 36.199640                                                 
H 27.231256 59.977110 28.463419                                                 
C 27.836411 57.650407 36.257783                                                 
H 25.853077 57.443718 51.290664                                                 
H 27.041423 59.802298 44.024754                                                 
C 27.915255 57.442241 51.160512                                                 
H 25.738573 52.917351 36.121579                                                 
H 27.253306 55.283806 28.583296                                                 
C 27.802999 52.918475 36.179940                                                 
H 25.812759 52.760288 51.097172                                                 
H 27.093724 55.054899 43.583497                                                 
C 27.873596 52.754671 50.947550                                                 
C 29.358408 41.325118 28.601001                                                 
C 29.230988 41.144965 36.108439                                                 
C 30.643234 43.681559 28.744804                                                 
C 31.926333 41.111275 36.174263                                                 
C 33.338038 38.954422 29.020551                                                 
C 33.344079 38.822048 36.300916                                                 
C 34.687821 41.334148 29.190716                                                 
C 36.013291 38.824274 36.528734                                                 
C 29.352177 46.023365 28.690723                                                 
C 29.124331 45.794225 36.042677                                                 
C 30.645395 48.331024 28.769523                                                 
C 31.901911 45.825371 36.108408                                                 
C 33.354478 43.668892 29.077229                                                 
C 33.279019 43.486761 36.175258                                                 
C 34.700243 46.010884 29.300015                                                 
C 35.991061 43.506534 36.258341                                                 
C 29.181582 41.075285 43.453342                                                 
C 29.201290 41.128090 50.785867                                                 
C 30.474323 43.422595 43.279662                                                 
C 31.887257 41.067832 50.692762                                                 
C 33.179873 38.677190 43.448669                                                 
C 33.268511 38.777545 50.745300                                                 
C 34.572152 41.075468 43.371853                                                 
C 35.918740 38.749891 50.807743                                                 
C 29.195269 45.789628 43.384079                                                 
C 29.165068 45.774823 50.799870                                                 
C 30.519027 48.100113 43.494403                                                 
C 31.891498 45.759742 50.581367                                                 
C 33.226129 43.427038 43.349125                                                 
C 33.235359 43.432317 50.545659                                                 
C 34.586149 45.762652 43.420950                                                 
C 35.942281 43.430897 50.370585                                                 
C 41.439595 39.024877 29.378857                                                 
C 41.428513 38.866743 36.410854                                                 
C 42.778480 41.359733 29.641978                                                 
C 44.129566 38.847545 36.468335                                                 
C 41.367788 38.722760 43.541002                                                 
C 41.344200 38.767086 50.572508                                                 
C 42.724282 41.084339 43.501368                                                 
C 44.027135 38.746070 50.428729                                                 
C 37.401190 41.336789 29.389904                                                 
C 37.365987 41.195449 36.415118                                                 
C 38.732586 43.679006 29.643110                                                 
C 40.069376 41.191263 36.427164                                                 
C 37.278517 41.076752 43.439749                                                 
C 37.288281 41.111661 50.519941                                                 
C 38.648605 43.420113 43.507842                                                 
C 39.983696 41.089090 50.356006                                                 
C 41.424400 34.335523 28.981041                                                 
C 41.415071 34.195969 36.322568                                                 
C 42.793228 36.694321 29.179187                                                 
C 44.097481 34.117821 36.421082                                                 
C 41.358981 33.963456 43.600360                                                 
C 41.329013 34.118519 50.820810                                                 
C 42.738055 36.379516 43.559815                                                 
C 44.010218 34.064841 50.922892                                                 
C 37.395782 36.619558 29.042923                                                 
C 37.397999 36.540882 36.404322                                                 
C 38.758388 39.004541 29.255583                                                 
C 40.070516 36.501612 36.244076                                                 
C 37.240150 36.332699 43.556667                                                 
C 37.305082 36.456961 50.687400                                                 
C 38.633454 38.734745 43.535902                                                 
C 39.972239 36.407420 50.864839                                                 
C 41.410954 48.364031 30.021345                                                 
C 41.391890 48.231580 36.267073                                                 
C 42.752660 50.708926 30.119162                                                 
C 44.105506 48.234833 36.201065                                                 
C 41.362915 48.120174 43.651909                                                 
C 41.331013 48.081521 49.789670                                                 
C 42.714283 50.479652 43.645423                                                 
C 44.032627 48.076245 49.702739                                                 
C 29.311046 55.306095 28.790419                                                 
C 29.090182 55.315581 36.254058                                                 
C 30.586042 57.658155 28.821535                                                 
C 31.880485 55.299198 36.273938                                                 
C 33.347569 53.020921 29.181346                                                 
C 33.218986 52.947150 36.227334                                                 
C 34.663644 55.355914 29.352963                                                 
C 35.953252 52.941780 36.253208                                                 
C 29.161343 55.099916 43.574704                                                 
C 29.182865 55.081890 50.986875                                                 
C 30.417326 57.469006 43.703545                                                 
C 31.904676 55.092957 50.749378                                                 
C 33.241544 52.808585 43.501959                                                 
C 33.250708 52.746061 50.504939                                                 
C 34.557678 55.168726 43.564598                                                 
C 35.942792 52.753648 50.200493                                                 
C 37.364803 50.690590 29.723962                                                 
C 37.300685 50.583804 36.191164                                                 
C 38.701419 53.037745 29.846260                                                 
C 40.013035 50.579531 36.273497                                                 
C 37.299498 50.478337 43.600686                                                 
C 37.283893 50.423074 50.026853                                                 
C 38.637142 52.835517 43.613263                                                 
C 39.983289 50.420552 49.831148                                                 
C 41.425869 43.687793 29.793540                                                 
C 41.414424 43.539433 36.392318                                                 
C 42.767436 46.029723 29.986060                                                 
C 44.121831 43.535073 36.407570                                                 
C 41.360486 43.410903 43.536453                                                 
C 41.330520 43.413757 50.048419                                                 
C 42.717284 45.756640 43.596974                                                 
C 44.030222 43.403979 49.947976                                                 
C 29.337790 50.663203 28.962724                                                 
C 29.085779 50.554352 36.139765                                                 
C 30.625993 53.007516 28.824840                                                 
C 31.867621 50.564618 36.183874                                                 
C 33.367722 48.337027 29.137829                                                 
C 33.228853 48.188781 36.118690                                                 
C 34.681896 50.681430 29.379923                                                 
C 35.955138 48.211658 36.070019                                                 
C 29.217777 50.440565 43.309696                                                 
C 29.158742 50.404470 50.857466                                                 
C 30.512659 52.791016 43.480133                                                 
C 31.898541 50.411115 50.595102                                                 
C 33.248715 48.115035 43.421305                                                 
C 33.243280 48.092886 50.414840                                                 
C 34.590354 50.464046 43.475640                                                 
C 35.933949 48.090862 50.155330                                                 
C 37.380585 46.010812 29.630294                                                 
C 37.325081 45.866888 36.181055                                                 
C 38.714633 48.355162 29.828045                                                 
C 40.044712 45.870770 36.301405                                                 
C 37.303916 45.749327 43.559027                                                 
C 37.282681 45.758294 50.125501                                                 
C 38.660072 48.119581 43.677958                                                 
C 39.980927 45.748830 49.952292                                                 
C 45.477281 32.061948 28.953254                                                 
C 45.486557 31.825631 36.153491                                                 
C 46.864646 34.362745 29.040942                                                 
C 48.159444 31.821765 36.079568                                                 
H 49.177380 30.037618 35.872341                                                 
H 50.583397 32.642982 28.864232                                                 
C 45.480517 36.706265 29.197398                                                 
C 45.472804 36.502363 36.443148                                                 
C 46.823501 39.054833 29.383141                                                 
C 48.185355 36.491344 36.426899                                                 
C 49.539880 34.424229 28.984520                                                 
C 49.563228 34.088396 36.242150                                                 
C 50.881942 36.712823 28.940788                                                 
C 52.249728 34.154665 36.050557                                                 
C 45.441607 31.708633 43.468456                                                 
C 45.392104 31.761787 50.897865                                                 
C 46.827663 34.014685 43.508289                                                 
C 48.009165 31.737771 50.688265                                                 
H 49.030677 29.941370 50.656763                                                 
H 50.568381 32.323631 43.229618                                                 
C 45.450550 36.393854 43.474813                                                 
C 45.375231 36.402055 50.632860                                                 
C 46.784161 38.746596 43.386349                                                 
C 48.057889 36.378740 50.524359                                                 
C 49.508854 34.099388 43.246232                                                 
C 49.422347 34.010273 50.584833                                                 
C 50.839070 36.412252 43.106365                                                 
C 52.099372 34.039043 50.440353                                                 
H 53.271064 32.371800 35.837853                                                 
H 53.121198 32.243895 50.472657                                                 
C 57.588743 39.115919 28.961394                                                 
C 57.747347 38.807530 36.053236                                                 
C 58.962924 41.420288 28.801659                                                 
C 60.410221 38.886688 36.096532                                                 
C 57.581347 38.757946 43.430463                                                 
C 57.522494 38.685574 50.810128                                                 
C 58.998947 41.034433 43.579760                                                 
C 60.192885 38.762309 50.996786                                                 
C 45.468251 46.038828 30.024280                                                 
C 45.477249 45.876348 36.316559                                                 
C 46.814737 48.381739 30.123966                                                 
C 48.186987 45.878954 36.328046                                                 
C 49.520578 43.724044 29.737552                                                 
C 49.544890 43.534902 36.382497                                                 
C 50.870190 46.062435 29.850049                                                 
C 52.253940 43.544040 36.350928                                                 
C 45.432154 45.765723 43.577085                                                 
C 45.380644 45.735343 49.771292                                                 
C 46.794566 48.130792 43.599806                                                 
C 48.082183 45.731358 49.792598                                                 
C 49.485040 43.442865 43.447324                                                 
C 49.425613 43.392555 49.970159                                                 
C 50.857283 45.784386 43.534209                                                 
C 52.119446 43.392878 50.135710                                                 
C 53.559384 41.433908 29.180754                                                 
C 53.624013 41.186055 36.329743                                                 
C 54.910987 43.754870 29.324771                                                 
C 56.344592 41.204079 36.237342                                                 
C 53.541477 41.132571 43.365063                                                 
C 53.464009 41.054911 50.377726                                                 
C 54.927674 43.450294 43.466598                                                 
C 56.166772 41.055477 50.655437                                                 
H 57.344035 34.723440 35.628943                                                 
H 58.622291 37.327935 28.834910                                                 
H 57.202771 34.600125 50.691422                                                 
H 58.570240 36.943384 43.526180                                                 
C 45.472888 41.372959 29.654884                                                 
C 45.488565 41.191528 36.470242                                                 
C 46.822585 43.709542 29.842219                                                 
C 48.183088 41.188825 36.454384                                                 
C 49.507936 39.072339 29.241901                                                 
C 49.535448 38.832053 36.442813                                                 
C 50.868443 41.401138 29.411690                                                 
C 52.253210 38.833961 36.311949                                                 
C 45.420037 41.085554 43.449302                                                 
C 45.378624 41.067082 50.125081                                                 
C 46.785415 43.427521 43.471471                                                 
C 48.071820 41.060821 50.107198                                                 
C 49.481192 38.777296 43.267703                                                 
C 49.416295 38.720338 50.316809                                                 
C 50.835039 41.108758 43.351592                                                 
C 52.119067 38.709593 50.383679                                                 
C 53.559986 36.779306 29.049924                                                 
C 53.626617 36.426735 36.090021                                                 
C 54.927942 39.070000 28.891489                                                 
C 56.322208 36.499189 35.879295                                                 
C 53.510771 36.466396 43.291011                                                 
C 53.490905 36.320053 50.515475                                                 
C 54.889728 38.773046 43.338229                                                 
C 56.162878 36.383134 50.618893                                                 
H 61.460355 37.113480 36.009756                                                 
H 62.664816 39.681428 28.672534                                                 
H 61.229391 36.975539 51.048009                                                 
H 62.693710 39.279763 43.940100                                                 
H 28.149509 61.775056 36.140838                                                 
H 28.231428 61.493001 51.376047                                                 
C 29.288461 60.001184 28.650283                                                 
C 29.173169 59.980708 36.202305                                                 
C 30.579859 62.304863 28.788345                                                 
C 31.868689 60.023147 36.295601                                                 
C 33.302063 57.686782 29.135333                                                 
C 33.237671 57.647049 36.334951                                                 
C 34.627169 60.032452 29.208767                                                 
C 35.949713 57.626543 36.356451                                                 
H 29.538919 64.084717 28.669452                                                 
H 32.272462 64.126785 36.327734                                                 
C 33.257312 62.405014 29.001336                                                 
C 33.279794 62.320454 36.279090                                                 
C 34.628767 64.713562 29.068940                                                 
C 35.966416 62.324342 36.358170                                                 
C 29.095381 59.811942 43.843244                                                 
C 29.242952 59.695737 51.210527                                                 
C 30.442713 62.162051 43.706603                                                 
C 31.919130 59.750855 51.075132                                                 
C 33.178235 57.490842 43.603890                                                 
C 33.258866 57.412164 50.759025                                                 
C 34.533216 59.857747 43.633590                                                 
C 35.962303 57.417206 50.469053                                                 
H 29.392570 63.939548 43.744669                                                 
H 32.294975 63.841193 51.258010                                                 
C 33.114233 62.251092 43.564354                                                 
C 33.297832 62.066938 50.872365                                                 
C 34.533484 64.562430 43.357396                                                 
C 35.971366 62.086254 50.845266                                                 
C 41.389830 57.723688 29.813703                                                 
C 41.380466 57.632844 36.296113                                                 
C 42.740425 60.057143 29.633346                                                 
C 44.099718 57.645941 36.264536                                                 
C 41.324777 57.534575 43.659989                                                 
C 41.347715 57.424668 50.046705                                                 
C 42.695512 59.879061 43.573832                                                 
C 44.048634 57.427142 49.934315                                                 
C 37.337919 60.046144 29.424672                                                 
C 37.328471 59.954059 36.372227                                                 
C 38.689254 62.393022 29.299825                                                 
C 40.031781 59.984079 36.356362                                                 
C 37.240737 59.873109 43.663645                                                 
C 37.320556 59.731094 50.547312                                                 
C 38.616404 62.224669 43.630252                                                 
C 40.007905 59.751570 50.346720                                                 
C 41.395349 53.046335 30.038323                                                 
C 41.371087 52.930116 36.291611                                                 
C 42.740745 55.392271 30.013072                                                 
C 44.098823 52.933731 36.303383                                                 
C 41.339671 52.832053 43.661828                                                 
C 41.336093 52.756292 49.795508                                                 
C 42.692135 55.182973 43.750048                                                 
C 44.037163 52.755102 49.702207                                                 
C 37.351463 55.375104 29.662960                                                 
C 37.286275 55.270678 36.320214                                                 
C 38.688645 57.713883 29.671464                                                 
C 40.015369 55.282612 36.297361                                                 
C 37.273135 55.184013 43.603584                                                 
C 37.293017 55.087809 50.177379                                                 
C 38.612991 57.520958 43.639691                                                 
C 39.989804 55.092551 49.967331                                                 
C 41.372621 67.081347 28.909654                                                 
C 41.360547 66.993641 36.355439                                                 
C 42.773649 69.363166 28.777991                                                 
C 44.046404 67.076496 36.107290                                                 
C 41.302177 66.969685 43.503590                                                 
C 41.379912 66.714132 50.857009                                                 
C 42.697899 69.245624 43.527971                                                 
C 44.053963 66.768993 50.790327                                                 
H 37.673670 68.844428 28.966562                                                 
H 40.302086 68.770443 36.384684                                                 
H 37.582225 68.696061 43.624853                                                 
H 40.345539 68.498080 51.019575                                                 
C 41.388725 62.387162 29.339653                                                 
C 41.390695 62.312560 36.369513                                                 
C 42.744566 64.725393 29.060587                                                 
C 44.085729 62.341122 36.273256                                                 
C 41.332006 62.227205 43.523048                                                 
C 41.378821 62.075545 50.523889                                                 
C 42.686336 64.568119 43.449087                                                 
C 44.063210 62.083108 50.376604                                                 
H 33.593591 66.494945 28.928298                                                 
H 33.510894 66.347114 43.155152                                                 
C 37.307166 64.774129 29.091802                                                 
C 37.351212 64.625038 36.368680                                                 
C 38.697043 67.051723 29.050138                                                 
C 40.027807 64.679875 36.499279                                                 
C 37.238652 64.623339 43.542340                                                 
C 37.342450 64.388642 50.777622                                                 
C 38.612716 66.904676 43.610883                                                 
C 40.034467 64.435667 50.868208                                                 
C 61.645579 41.477996 28.782320                                                 
C 61.742036 41.228386 36.235222                                                 
C 62.967934 43.743294 28.897664                                                 
H 63.805089 41.241829 36.145939                                                 
C 61.696567 46.097054 29.007724                                                 
C 61.711135 45.948839 36.495332                                                 
C 63.002179 48.436003 29.136787                                                 
H 63.778008 45.992520 36.387497                                                 
H 65.034852 43.741664 28.873760                                                 
C 61.679401 41.067547 43.785358                                                 
C 61.481650 41.041711 51.133571                                                 
C 63.046837 43.411514 43.822068                                                 
H 63.543698 41.059501 51.294857                                                 
C 61.798906 45.777977 43.684455                                                 
C 61.505580 45.741405 50.942074                                                 
C 63.118178 48.167317 43.636334                                                 
H 63.541930 45.756323 51.339021                                                 
H 65.105635 43.380478 43.954531                                                 
C 61.659782 55.458231 29.153458                                                 
C 61.674538 55.296248 36.462969                                                 
C 62.924779 57.827450 29.083100                                                 
H 63.742720 55.279432 36.390283                                                 
H 65.047526 53.150945 29.127503                                                 
C 61.771698 55.233812 43.589464                                                 
C 61.527541 55.048228 50.832879                                                 
C 63.033237 57.588339 43.721691                                                 
H 63.588170 55.033702 50.998595                                                 
H 65.129274 52.900572 43.870117                                                 
C 61.711748 50.778653 29.211041                                                 
C 61.658652 50.635577 36.431927                                                 
C 62.983336 53.131608 29.215636                                                 
H 65.065790 48.436011 29.044173                                                 
C 61.788406 50.544150 43.711618                                                 
C 61.497297 50.396588 50.902275                                                 
C 63.065367 52.878700 43.764017                                                 
H 65.184957 48.171314 43.569303                                                 
H 41.737624 71.151569 28.745812                                                 
H 44.390692 71.159025 36.131087                                                 
H 41.674758 71.037188 43.598782                                                 
H 44.400717 70.843694 50.984290                                                 
C 45.386343 69.352467 28.668678                                                 
C 45.430573 69.375626 36.162392                                                 
H 46.432225 71.132120 28.542219                                                 
C 48.112573 69.381293 36.132078                                                 
C 49.455541 67.033196 28.877504                                                 
C 49.514533 67.112568 36.150101                                                 
H 50.484754 68.819113 28.705230                                                 
C 52.220177 67.040015 36.225112                                                 
H 49.133372 71.175379 36.123566                                                 
C 45.371272 69.241306 43.481227                                                 
C 45.445919 69.063086 50.909964                                                 
H 46.405932 71.028656 43.466331                                                 
C 48.076635 69.067433 50.937460                                                 
C 49.455262 66.875913 43.494259                                                 
C 49.486032 66.772135 50.841547                                                 
H 50.501515 68.660038 43.529265                                                 
C 52.139329 66.736858 50.884044                                                 
H 49.112810 70.851876 51.038232                                                 
H 57.315819 66.495994 35.915964                                                 
H 57.220801 66.208773 50.823169                                                 
H 53.248475 68.828478 36.136027                                                 
H 53.165796 68.524685 51.041575                                                 
C 57.535568 62.413524 29.157355                                                 
C 57.692059 62.405770 36.309584                                                 
H 58.559312 64.205103 29.015458                                                 
C 60.358490 62.326685 36.301245                                                 
C 57.561410 62.205078 43.534591                                                 
C 57.561801 62.132381 50.639348                                                 
H 58.553048 64.016668 43.734109                                                 
C 60.255135 62.043514 50.716484                                                 
C 53.499755 64.721787 29.095361                                                 
C 53.629909 64.753133 36.322932                                                 
C 56.298893 64.718061 36.189526                                                 
C 53.488352 64.523331 43.396589                                                 
C 53.505247 64.473151 50.753879                                                 
C 56.187647 64.424172 50.696194                                                 
C 61.601177 60.073407 29.005752                                                 
C 61.686713 60.006677 36.268322                                                 
H 62.611036 61.876957 28.937322                                                 
H 63.747171 59.992727 36.127218                                                 
H 64.992534 57.835272 29.069699                                                 
H 61.404310 64.105159 36.211792                                                 
C 61.676095 59.904590 43.542733                                                 
C 61.551413 59.747533 50.797051                                                 
H 62.685018 61.704430 43.614234                                                 
H 63.614329 59.727475 50.889460                                                 
H 65.082586 57.606261 43.951004                                                 
H 61.293292 63.827592 50.787308                                                 
H 63.535812 50.394437 51.291222                                                 
H 36.272422 34.668942 50.821352                                                 
H 36.324338 66.155150 51.162873                                                 
H 27.148054 50.441338 43.348934                                                 
H 54.536356 66.301239 43.616852                                                 
H 63.729531 50.631782 36.408970                                                 
H 54.548312 34.674791 43.330069                                                 
H 36.369830 34.745319 36.369025                                                 
H 36.306235 66.410785 36.428574                                                 
H 54.526256 66.507206 28.912091                                                 
H 27.279433 50.657339 28.745566                                                 
H 54.601246 34.995297 28.930884                                                 
Li 58.940997 60.145113 32.888750                                                
Li 30.274662 43.402865 47.231351                                                
Li 44.026608 34.132341 32.511557                                                
Li 46.847966 67.062958 47.293550                                                
Li 60.241871 43.203513 47.145167                                                
Li 31.258778 59.937730 32.371837                                                
Li 51.424819 64.289349 32.822399                                                
Li 40.340168 65.156414 32.590589                                                
Li 60.167144 53.157393 47.015078                                                
Li 30.124802 52.818227 47.341278                                                
Li 35.579371 38.897852 46.952250                                                
Li 55.309506 38.671867 47.153275                                                
Li 36.084244 38.583601 32.634842                                                
Li 50.487437 36.392877 32.801580                                                
Li 39.920895 36.336436 47.014582                                                
Li 50.589989 36.078516 46.991075                                                
Li 54.776844 62.579324 47.151850                                                
Li 40.197636 64.684899 47.008930                                                
Li 30.422691 53.230064 32.700200                                                
Li 30.443983 48.047817 32.624445                                                
Li 31.639611 59.778497 47.169336                                                
Li 60.590387 53.387190 32.748076                                                
Li 54.771507 38.991447 32.724583                                                
Li 60.644268 48.043661 32.637731                                                
Li 46.702684 67.333008 32.641215                                                
Li 59.333850 59.732860 47.178148                                                
Li 31.325707 41.488889 32.323985                                                
Li 44.444667 33.684479 47.021401                                                
Li 59.439831 41.306112 32.699247                                                
Li 36.138736 62.189293 40.146990                                                
Li 30.322478 47.857324 39.592081                                                
Li 35.028225 63.811434 47.291762                                                
Li 50.687525 64.851960 39.717266                                                
Li 39.934689 36.314345 40.109692                                                
Li 60.912858 48.506128 40.204809                                                
Li 62.275182 48.152826 47.476941                                                
Li 55.399037 38.107355 39.582434                                                
Li 30.406094 53.068083 39.658318                                                
Li 44.147929 48.113123 40.142362                                                
Li 42.708066 55.380092 39.785712                                                
Li 35.733629 62.685930 32.576896                                                
Li 31.638683 40.816396 39.980056                                                
Li 52.398754 48.192780 40.111668                                                
Li 56.145575 63.829565 40.007664                                                
Li 43.930282 67.158826 39.990649                                                
Li 30.645330 59.481230 40.093597                                                
Li 46.923486 33.675012 39.677891                                                
Li 61.053472 57.693393 40.081335                                                
Li 60.724704 42.949487 40.172088                                                
Li 50.896885 56.686472 39.900209                                                
Li 37.141578 48.169876 39.906475                                                
Li 44.492880 41.243400 32.994720                                                
%ENDBLOCK POSITIONS_ABS                                                         

--------------------------------------------------------------------------------
-------------------------------- END INPUT FILE --------------------------------
--------------------------------------------------------------------------------


 
<<<<<<<<<<<<<<<<<<<<<<<<<<<<<<<<< Full system >>>>>>>>>>>>>>>>>>>>>>>>>>>>>>>>>>
<<<<<<<<<<<<<<<<<<<<<<<<<<< PAW Dataset information >>>>>>>>>>>>>>>>>>>>>>>>>>>
File: ~/pp/paw/c_pbe_abinit.paw; rc = 1.25 bohr; shape type =  3; rshape = 1.25 bohr;
  Atomic number:  6;  ionic charge:  4.000000
    Partial Wave 1: l = 0
    Partial Wave 2: l = 0
    Partial Wave 3: l = 1
    Partial Wave 4: l = 1
  Core charge supplied for Nonlinear Core Corrections
File: ~/pp/paw/h_pbe_abinit.paw; rc = 0.90 bohr; shape type =  3; rshape = 0.90 bohr;
  Atomic number:  1;  ionic charge:  1.000000
    Partial Wave 1: l = 0
    Partial Wave 2: l = 0
File: ~/pp/paw/li_pbe_abinit.paw; rc = 1.42 bohr; shape type =  3; rshape = 1.42 bohr;
  Atomic number:  3;  ionic charge:  3.000000
    Partial Wave 1: l = 0
    Partial Wave 2: l = 0
    Partial Wave 3: l = 0
    Partial Wave 4: l = 1
    Partial Wave 5: l = 1
<<<<<<<<<<<<<<<<<<<<<<<<<<<<<<<<<<<<<<< >>>>>>>>>>>>>>>>>>>>>>>>>>>>>>>>>>>>>>>

-------------------------- Atom counting information ---------------------------
Symbol    Natoms    Nngwfs    Nprojs
  C        484      1936      3872
  H        108       108       216
  Li        52       260       468
.......   ......    ......    ......
Totals:    644      2304      4556
--------------------------------------------------------------------------------

=============================== PSINC grid sizes ===============================
                      Simulation cell:  189 x 189 x 189
                              FFT-box:  117 x 117 x 117
                                  PPD:    7 x   7 x   1
Grid space d1=  0.499927596032a0 (KE cutoff=  30.39413Eh = 827.06648eV)
Grid space d2=  0.499927596032a0 (KE cutoff=  30.39413Eh = 827.06648eV)
Grid space d3=  0.499927596032a0 (KE cutoff=  30.39413Eh = 827.06648eV)
================================================================================
  
WARNING in cell_grid_distribute:
Average of less than one 23-slab per node, so workload cannot be
equally balanced between nodes.

********************* Fourier parallelisation information **********************
       Coarse grid (whole simulation cell) dimensions:    189   189   189
          Real-space ('12') slabs/node (min max mean):      1     2     1
         Recip-space ('23') slabs/node (min max mean):      0     1     0
********************************************************************************

********************* Fourier parallelisation information **********************
       Double grid (whole simulation cell) dimensions:    378   378   378
          Real-space ('12') slabs/node (min max mean):      2     3     2
         Recip-space ('23') slabs/node (min max mean):      1     2     1
********************************************************************************

Atom SCF Calculation for C  : Z (AE atom) =   6 : Z (PS atom) =   4
Config String: 2s2 2p2
Orbitals (num,occ):  2     2.00 2.00
Orbitals   (num,l):  2        0    1
Real-space Grid (nr,dr,rmax): 1377    0.0065406977    9.0000000000
Spherical Bessel Basis (nsws,lmax,cutoff):   37    2  183.0099912382
Confining potential (l,width,scale):  0    3.0000000000  100.0000000000
Confining potential (l,width,scale):  1    3.0000000000  100.0000000000
  1         -5.4350126632   -1.2715272878    4.5135247139   -1.5681949477
  2         -5.3876836850   -1.3562195125    4.4235426751   -1.5380057521
  3         -5.3928844498   -1.3758175853    4.4021699684   -1.5318377811
  4         -5.3988962903   -1.3800385428    4.3975423583   -1.5307324410
  5         -5.4018428823   -1.3823489590    4.3950111904   -1.5301555648
  6         -5.4033571720   -1.3835805046    4.3936635548   -1.5298576834
  7         -5.4041480647   -1.3842324820    4.3929512000   -1.5297032953
  8         -5.4045641108   -1.3845769138    4.3925755232   -1.5296229456
  9         -5.4047838258   -1.3847587737    4.3923775340   -1.5295810042
 10         -5.4049001347   -1.3848548089    4.3922731819   -1.5295590658
 11         -5.4049618018   -1.3849055476    4.3922181562   -1.5295475724
 12         -5.4049945351   -1.3849323732    4.3921891206   -1.5295415432
 13         -5.4050119258   -1.3849465673    4.3921737867   -1.5295383767
 14         -5.4050211723   -1.3849540841    4.3921656816   -1.5295367119
 15         -5.4050260920   -1.3849580684    4.3921613935   -1.5295358358
 16         -5.4050287113   -1.3849601822    4.3921591228   -1.5295353742
 17         -5.4050301068   -1.3849613045    4.3921579192   -1.5295351307
 18         -5.4050308507   -1.3849619010    4.3921572806   -1.5295350022
 19         -5.4050312476   -1.3849622183    4.3921569415   -1.5295349343
 20         -5.4050314594   -1.3849623873    4.3921567612   -1.5295348984
 21         -5.4050315725   -1.3849624773    4.3921566653   -1.5295348794
 22         -5.4050316330   -1.3849625253    4.3921566143   -1.5295348693
Atom SCF converged after  22 iterations to a total energy of     -5.40503163

Atom SCF Calculation for H  : Z (AE atom) =   1 : Z (PS atom) =   1
Config String: 1s1
Orbitals (num,occ):  1     1.00
Orbitals   (num,l):  1        0
Real-space Grid (nr,dr,rmax): 1377    0.0065406977    9.0000000000
Spherical Bessel Basis (nsws,lmax,cutoff):   37    1  183.0099912382
Confining potential (l,width,scale):  0    3.0000000000  100.0000000000
  1         -0.3605254152   -0.2399954029    0.2820952946   -0.2424203210
  2         -0.4156854077   -0.2398249290    0.2871789324   -0.2464796203
  3         -0.4412552402   -0.2379720642    0.2899127187   -0.2499011370
  4         -0.4517265951   -0.2371980236    0.2908966173   -0.2514141636
  5         -0.4557775773   -0.2369735141    0.2911607883   -0.2519713623
  6         -0.4573363459   -0.2369240355    0.2912108681   -0.2521663171
  7         -0.4579443228   -0.2369187864    0.2912112833   -0.2522344454
  8         -0.4581858602   -0.2369215483    0.2912049187   -0.2522587615
  9         -0.4582834939   -0.2369242589    0.2912002081   -0.2522677042
 10         -0.4583235236   -0.2369258837    0.2911975892   -0.2522710965
 11         -0.4583401154   -0.2369267223    0.2911962825   -0.2522724192
 12         -0.4583470483   -0.2369271266    0.2911956643   -0.2522729467
 13         -0.4583499624   -0.2369273145    0.2911953803   -0.2522731607
 14         -0.4583511926   -0.2369274000    0.2911952521   -0.2522732486
 15         -0.4583517136   -0.2369274385    0.2911951948   -0.2522732850
 16         -0.4583519349   -0.2369274556    0.2911951693   -0.2522733002
 17         -0.4583520290   -0.2369274632    0.2911951581   -0.2522733066
Atom SCF converged after  17 iterations to a total energy of     -0.45835203

Atom SCF Calculation for Li : Z (AE atom) =   3 : Z (PS atom) =   3
Config String: 1s2 2s1 2p0
Orbitals (num,occ):  3     2.00 1.00 0.00
Orbitals   (num,l):  3        0    0    1
Real-space Grid (nr,dr,rmax): 1377    0.0065406977    9.0000000000
Spherical Bessel Basis (nsws,lmax,cutoff):   37    2  183.0099912382
Confining potential (l,width,scale):  0    3.0000000000  100.0000000000
Confining potential (l,width,scale):  1    3.0000000000  100.0000000000
  1         -6.0640888065   -4.6655401716    2.5388576516   -0.9989538799
  2         -6.9627542978   -4.0954079129    2.9808988108   -1.1965571426
  3         -7.2692687601   -3.8889996707    3.2029735703   -1.3193883705
  4         -7.3784440298   -3.8322099748    3.2868571989   -1.3711018151
  5         -7.4170278248   -3.8191968371    3.3144974220   -1.3911175539
  6         -7.4303549880   -3.8172386945    3.3228486489   -1.3986896266
  7         -7.4348052089   -3.8175483495    3.3251259310   -1.4015352495
  8         -7.4362242328   -3.8180607346    3.3256233205   -1.4026016384
  9         -7.4366459715   -3.8184145665    3.3256561549   -1.4029998726
 10         -7.4367560626   -3.8186169740    3.3256001574   -1.4031477379
 11         -7.4367765260   -3.8187239825    3.3255481763   -1.4032021548
 12         -7.4367751741   -3.8187782620    3.3255144587   -1.4032219192
 13         -7.4367707398   -3.8188051288    3.3254952336   -1.4032289600
 14         -7.4367680349   -3.8188156035    3.3254870176   -1.4032309087
 15         -7.4367661982   -3.8188217406    3.3254819951   -1.4032318132
 16         -7.4367650112   -3.8188253257    3.3254789583   -1.4032322224
 17         -7.4367642682   -3.8188274151    3.3254771375   -1.4032324006
 18         -7.4367638134   -3.8188286307    3.3254760529   -1.4032324736
 19         -7.4367635392   -3.8188293370    3.3254754103   -1.4032325004
 20         -7.4367633760   -3.8188297469    3.3254750310   -1.4032325080
 21         -7.4367632796   -3.8188299846    3.3254748079   -1.4032325082
Atom SCF converged after  21 iterations to a total energy of     -7.43676328

Determining parallel strategy ...
... using space-filling curve
... NGWF load balancing: max     17;  min     12;  average     14
... Projector load balancing: max     34;  min     24;  average     28
... done
Calculating Ewald energy ...
              Ewald: real-space energy =   36671.142858
        Ewald: reciprocal-space energy =   37315.561767
         Ewald: (sum_charge)**2 Energy =    2965.863520
         Ewald: (sum_charge**2) Energy =     258.762928
                          Ewald Energy =   70762.078177
======================= Empirical dispersion information =======================
Model : Grimme D2
Dispersion Correction Energy: -0.25876535E+01 Hartree
================================================================================
Basis initialisation ...... NGWF spheres initialised
... Projector spheres initialised
... NGWF tight boxes initialised
... Projector tight boxes initialised
... Tight-boxes gathered
... NGWF basis size (local,global):     288950  46462408
... PAW projector initialisation
... done

============================= Charge Augmentation ==============================
                           Aug box size:   13 x  13 x  13
================================================================================

========================== Sparse matrix information ===========================
                        Overlap matrix filling:  35.88%
                        Density kernel filling: 100.00%
              NGWF-Proj overlap matrix filling:  10.05%
                    Aug Overlap matrix filling:  40.70%
                    Hamiltonian matrix filling:  40.70%
                  NGWF diagonal matrix filling:   0.17%
                             KS matrix filling: 100.00% 
                           KSKS matrix filling: 100.00% 
================================================================================

Sparse matrix initialisation ... done
NGWF initialisation ...... done
============ Calculation of NGWF S^-1 using Hotelling algorithm ================ 
         Iteration  |  Frobenius norm and Maximum abs value    (of I-S*S_n^-1)   
               1       0.47709757E+02     0.99701308E+00
               2       0.47435079E+02     0.99404282E+00
               3       0.46927454E+02     0.98815081E+00
               4       0.46050443E+02     0.97655134E+00
               5       0.44686254E+02     0.95402540E+00
               6       0.42814698E+02     0.91127632E+00
               7       0.40478379E+02     0.83311917E+00
               8       0.37703533E+02     0.79334680E+00
               9       0.34634627E+02     0.77320494E+00
              10       0.31574581E+02     0.75134087E+00
              11       0.28459391E+02     0.73538058E+00
              12       0.24676481E+02     0.70825359E+00
              13       0.19751979E+02     0.67313088E+00
              14       0.13817781E+02     0.61128948E+00
              15       0.81247127E+01     0.50930959E+00
              16       0.44640407E+01     0.43399666E+00
              17       0.27876414E+01     0.35211022E+00
              18       0.17063088E+01     0.23755995E+00
              19       0.80631837E+00     0.11211556E+00
              20       0.23958799E+00     0.41023508E-01
              21       0.30479718E-01     0.63650482E-02
              22       0.65147162E-03     0.15512439E-03
              23       0.36119433E-06     0.92420508E-07
              24       0.15214948E-12     0.36304293E-13
================================================================================
Calculating core density ...
================================= Core Density =================================
               Core den box size:   21 x  21 x  21
================================================================================
 ... done
Up spin density kernel initialisation ...... done
Down spin density kernel initialisation ...... done

Writing density kernel to file "52/592nano.dkn" ... done

>>> Optimising kernel for current NGWFs:

--------------------------- Ensemble-DFT optimisation --------------------------
Running ScaLAPACK on  160 processor(s).
(P)DSYGVX in subroutine dense_eigensolve returned info=    2
 ifail=           0           0
 iclustr=           8          36
 gap=  1.890119419657342E-005  1.777619244427051E-005
(P)DSYGVX in subroutine dense_eigensolve returned info=    2
 ifail=           0           0
 iclustr=           8          36
 gap=  1.890119419657326E-005  1.777619244427036E-005

--------------------------------------------------------------------------------
  Iter                              Commutator    Free_energy(A=E-TS)     DeltaA
#    0                          0.001340144185   -3209.79621098176540  -3.21E+03

Step                       =       0.381966011250
Energy                     =   -3209.751167200097
Entropy (-TS)              =      -0.045043781179
Free energy (A=E-TS)       =   -3209.796210981765
Est. 0K Energy 0.5*(E+A)   =   -3209.773689090931
Residual Non-orthogonality =       0.000000000000
Residual N_electrons       =      -0.000000000489

Spin          Integrated_Ne            Fermi_level     Delta_Fermi_level
   1      1099.999999998905        -0.223469568897             -2.23E-01
   2      1099.999999998905        -0.223469568897             -2.23E-01

                           Spin 1           |                 Spin 2           |
     Orb |    H-eigenvalues     Occupancies |    H-eigenvalues     Occupancies |
       1 |    -1.8873808572    1.0000000000 |    -1.8873808572    1.0000000000 | 
                          ------                             ------
    1096 |    -0.2289967679    0.8513655294 |    -0.2289967679    0.8513655294 | 
    1097 |    -0.2283606191    0.8241138184 |    -0.2283606191    0.8241138184 | 
    1098 |    -0.2280871966    0.8112467370 |    -0.2280871966    0.8112467370 | 
    1099 |    -0.2247619593    0.6006333182 |    -0.2247619593    0.6006333182 | 
    1100 |    -0.2233270869    0.4887538346 |    -0.2233270869    0.4887538346 | 
                 - Gap at zero temperature - |     - Gap at zero temperature -
    1101 |    -0.2218575366    0.3754186998 |    -0.2218575366    0.3754186998 | 
    1102 |    -0.2204493731    0.2781408418 |    -0.2204493731    0.2781408418 | 
    1103 |    -0.2201060029    0.2569025875 |    -0.2201060029    0.2569025875 | 
    1104 |    -0.2187882508    0.1856928884 |    -0.2187882508    0.1856928884 | 
    1105 |    -0.2173293598    0.1257660319 |    -0.2173293598    0.1257660319 | 
                          ------                             ------
    2304 |     0.5558610171    0.0000000000 |     0.5558610171    0.0000000000 | 

                       |  Abs_value |  Threshold | Converged
     Delta_Free_energy |   3.21E+03 |   1.00E-06 |        No
     Delta_Energy      |   3.21E+03 |   1.00E-04 |        No
     Delta_Entropy     |   4.50E-02 |   1.00E-04 |        No
     Commutator        |   1.34E-03 |   1.00E-05 |        No
     Delta_Fermi_level |   2.23E-01 |   1.00E-03 |        No

  Line search of the free energy minimum:
[...]
 C   197 -- C   295       -0.07      0.00      5.45310
 C   261 -- C   263       -0.07      0.00      5.45311
 C   445 -- C   467       -0.07     -0.00      5.45386
 C    87 -- C    93       -0.07     -0.00      5.45404
 C   199 -- C   241       -0.07      0.00      5.45458
 C    45 -- C   359       -0.07      0.00      5.45467
 C   268 -- C   302       -0.07      0.00      5.45477
 C   442 -- C   456       -0.08      0.00      5.45484
 C     2 -- C   270       -0.08     -0.00      5.45490
 C    17 -- C   281       -0.07      0.00      5.45491
 C   318 -- C   380       -0.07     -0.00      5.45539
 C   437 -- C   443       -0.08     -0.00      5.45552
 C   323 -- C   385       -0.07      0.00      5.45725
 C   466 -- Li  600       -0.05      0.00      5.45803
 C    68 -- C   556       -0.08      0.00      5.45842
 C   182 -- C   188       -0.08      0.00      5.45880
 C    39 -- C   516       -0.07     -0.00      5.45922
 C   466 -- C   476       -0.07     -0.00      5.46046
 C   406 -- C   440       -0.07      0.00      5.46076
 H   141 -- Li  605       -0.02      0.00      5.46138
 H   590 -- Li  599       -0.02     -0.00      5.46153
 C    71 -- C   516       -0.07     -0.00      5.46217
 C   343 -- C   365       -0.07      0.00      5.46257
 C   197 -- C   199       -0.07     -0.00      5.46511
 C    90 -- C   108       -0.07     -0.00      5.46523
 C   117 -- C   127       -0.07      0.00      5.46527
 C    83 -- C   467       -0.07     -0.00      5.46563
 C   252 -- C   406       -0.08     -0.00      5.46653
 C    34 -- C    52       -0.07      0.00      5.46693
 C   466 -- C   538       -0.07      0.00      5.46842
 C   230 -- C   318       -0.07     -0.00      5.46875
 C   231 -- C   323       -0.07     -0.00      5.46970
 C   256 -- C   290       -0.07      0.00      5.47139
 C   324 -- Li  620       -0.05     -0.00      5.47186
 C   258 -- C   288       -0.07      0.00      5.48010
 C    52 -- C   338       -0.07     -0.00      5.48042
 C   423 -- C   489       -0.06     -0.00      5.48075
 H   146 -- Li  603       -0.02     -0.00      5.48269
 H   548 -- Li  596       -0.03     -0.00      5.48351
 C    71 -- C    93       -0.07     -0.00      5.49134
 C    76 -- C   564       -0.06      0.00      5.49178
 C   261 -- C   427       -0.07     -0.00      5.49191
 C    39 -- C   506       -0.06     -0.00      5.49232
 C    80 -- C   538       -0.06      0.00      5.49485
 C   231 -- C   241       -0.06      0.00      5.49526
 C    55 -- C   525       -0.06     -0.00      5.49550
 C   233 -- C   239       -0.06     -0.00      5.49811
 C   518 -- Li  618       -0.04     -0.00      5.49832
 C   364 -- C   390       -0.06     -0.00      5.49837
 H   165 -- Li  594       -0.03      0.00      5.49926
 C   338 -- C   380       -0.06     -0.00      5.50029
 H   151 -- Li  626       -0.02      0.00      5.50079
 C   427 -- C   445       -0.06     -0.00      5.50263
 C   252 -- C   286       -0.05     -0.00      5.50370
 C   190 -- C   284       -0.06     -0.00      5.50408
 C   188 -- C   286       -0.05      0.00      5.50475
 C    80 -- Li  636       -0.06      0.00      5.50530
 H   177 -- Li  630       -0.02     -0.00      5.50693
 C   254 -- C   284       -0.06     -0.00      5.50835
 C   343 -- C   506       -0.06     -0.00      5.50926
 H   151 -- Li  595       -0.02     -0.00      5.50944
 H   592 -- Li  615       -0.02      0.00      5.51274
 C   128 -- Li  601       -0.06      0.00      5.51329
 H   586 -- Li  616       -0.02     -0.00      5.51720
 H   584 -- Li  602       -0.02     -0.00      5.51810
 C   323 -- Li  608       -0.05     -0.00      5.52669
 H   544 -- Li  596       -0.02     -0.00      5.52899
 H   582 -- Li  607       -0.02     -0.00      5.53023
 C    68 -- Li  614       -0.05      0.00      5.53374
 H   474 -- Li  610       -0.03      0.00      5.53602
 H   156 -- Li  620       -0.02      0.00      5.53786
 C    29 -- Li  642       -0.06      0.00      5.54276
 H   561 -- Li  618       -0.02     -0.00      5.55176
 H   586 -- Li  614       -0.02     -0.00      5.55416
 H   369 -- Li  629       -0.01     -0.00      5.55554
 H   584 -- Li  623       -0.02      0.00      5.55590
 Li  627 -- Li  641       -0.15      0.00      5.55992
 Li  625 -- Li  636       -0.15      0.00      5.56057
 H   496 -- Li  621       -0.02     -0.00      5.56231
 H   171 -- Li  613       -0.02     -0.00      5.57066
 H   587 -- Li  608       -0.02      0.00      5.57151
 C    90 -- Li  642       -0.06      0.00      5.57188
 H   519 -- Li  601       -0.03      0.00      5.57605
 H   162 -- Li  612       -0.02     -0.00      5.57683
 H   530 -- Li  637       -0.02      0.00      5.57761
 H   584 -- Li  630       -0.02      0.00      5.57990
 H   587 -- Li  604       -0.02     -0.00      5.58327
 Li  605 -- Li  619       -0.14     -0.00      5.58400
 C    39 -- Li  628       -0.05      0.00      5.58608
 H   174 -- Li  611       -0.02      0.00      5.58675
 H   579 -- Li  640       -0.02      0.00      5.58710
 H   577 -- Li  640       -0.02      0.00      5.58854
 H   535 -- Li  617       -0.02      0.00      5.59537
 C   244 -- Li  643       -0.06      0.00      5.59591
 C   222 -- Li  644       -0.09     -0.00      5.59927
 C   309 -- Li  606       -0.05      0.00      5.60254
 C    55 -- Li  628       -0.04     -0.00      5.60534
 H   370 -- Li  621       -0.02      0.00      5.60601
 H   168 -- Li  598       -0.02      0.00      5.61233
 H   400 -- Li  641       -0.02      0.00      5.61621
 H   129 -- Li  619       -0.02      0.00      5.61767
 Li  599 -- Li  617       -0.15      0.00      5.62096
 H   557 -- Li  593       -0.02     -0.00      5.62420
 H   589 -- Li  622       -0.02      0.00      5.62811
 H   400 -- Li  597       -0.02     -0.00      5.62848
 H   154 -- Li  607       -0.02     -0.00      5.63007
 C    72 -- Li  601       -0.05     -0.00      5.63091
 C    27 -- Li  642       -0.06     -0.00      5.64095
 C   247 -- Li  643       -0.04     -0.00      5.64362
 H   591 -- Li  612       -0.02      0.00      5.64532
 C   343 -- Li  604       -0.05     -0.00      5.65365
 H   539 -- Li  617       -0.02     -0.00      5.65726
 C   379 -- Li  615       -0.05      0.00      5.65825
 C   169 -- Li  598       -0.04      0.00      5.66083
 H   571 -- Li  593       -0.02     -0.00      5.66412
 H   578 -- Li  618       -0.02      0.00      5.66537
 H   585 -- Li  625        0.01     -0.00      5.66751
 H   591 -- Li  611       -0.02     -0.00      5.66905
=============================================================


============== Orbital energy and occupancy information for spin 1 =============

      Total number of orbitals:    2304
        Occupancy sum (kernel):    1100.000000018
   Occupancy sum (eigenvalues):    1100.000000018
                 HOMO-LUMO gap:       0.000838068 Eh
                 Mid-gap level:      -0.076822157 Eh

                        Orbital | Energy (Eh) | Occupancy
                            1    -1.845171441   1.0000000
                        .......   ...........   .........
                         1091    -0.095621968   0.9958608
                         1092    -0.094711167   0.9944570
                         1093    -0.094171929   0.9935405
                         1094    -0.093236086   0.9913092
                         1095    -0.081571688   0.7397720
                         1096    -0.079772318   0.6175318
                         1097    -0.079595226   0.6043224
                         1098    -0.078289312   0.5031307
                         1099    -0.077921469   0.4724259
                         1100    -0.077241191   0.4209036
                        ....... -- gap at 0K -- .........
                         1101    -0.076403123   0.3560588
                         1102    -0.076302985   0.3487015
                         1103    -0.075799136   0.3149171
                         1104    -0.075287212   0.2791346
                         1105    -0.075175860   0.2739045
                         1106    -0.074556628   0.2370710
                         1107    -0.074255513   0.2198429
                         1108    -0.073442207   0.1797188
                         1109    -0.073264159   0.1702641
                         1110    -0.072465476   0.1369258
                        .......   ...........   .........
                         2304     0.769319887   0.0000000

================================================================================

============== Orbital energy and occupancy information for spin 2 =============

      Total number of orbitals:    2304
        Occupancy sum (kernel):    1099.999999980
   Occupancy sum (eigenvalues):    1099.999999980
                 HOMO-LUMO gap:       0.000838069 Eh
                 Mid-gap level:      -0.076822157 Eh

                        Orbital | Energy (Eh) | Occupancy
                            1    -1.845171440   1.0000000
                        .......   ...........   .........
                         1091    -0.095621968   0.9958608
                         1092    -0.094711167   0.9944570
                         1093    -0.094171929   0.9935405
                         1094    -0.093236086   0.9913092
                         1095    -0.081571688   0.7397720
                         1096    -0.079772318   0.6175318
                         1097    -0.079595226   0.6043225
                         1098    -0.078289312   0.5031307
                         1099    -0.077921469   0.4724259
                         1100    -0.077241191   0.4209037
                        ....... -- gap at 0K -- .........
                         1101    -0.076403123   0.3560588
                         1102    -0.076302985   0.3487015
                         1103    -0.075799136   0.3149171
                         1104    -0.075287212   0.2791346
                         1105    -0.075175860   0.2739045
                         1106    -0.074556628   0.2370710
                         1107    -0.074255513   0.2198429
                         1108    -0.073442207   0.1797188
                         1109    -0.073264158   0.1702641
                         1110    -0.072465477   0.1369258
                        .......   ...........   .........
                         2304     0.769319887   0.0000000

================================================================================

===================== Writing canonical molecular orbitals =====================
    Spin 1
| Orbital  Energy (eV)  Norm     |
| HOMO     -2.10183975  1.000000 | Writing "52/592nano_HOMO_UP.cube" ... done
Writing "52/592nano_HOMO_UP.dx" ... done
| LUMO     -2.07903476  1.000000 | Writing "52/592nano_LUMO_UP.cube" ... done
Writing "52/592nano_LUMO_UP.dx" ... done
================================================================================

===================== Writing canonical molecular orbitals =====================
    Spin 2
| Orbital  Energy (eV)  Norm     |
| HOMO     -2.10183977  1.000000 | Writing "52/592nano_HOMO_DN.cube" ... done
Writing "52/592nano_HOMO_DN.dx" ... done
| LUMO     -2.07903476  1.000000 | Writing "52/592nano_LUMO_DN.cube" ... done
Writing "52/592nano_LUMO_DN.dx" ... done
================================================================================

================== Local Density of States (LDOS) calculation ==================
Writing "52/592nano_UP_LDOS.txt" ...  done
================================================================================

================== Local Density of States (LDOS) calculation ==================
Writing "52/592nano_DN_LDOS.txt" ...  done
================================================================================
 
=============== Density of States (DOS) calculation for UP spin ================
Writing "52/592nano_UP_DOS.txt" ...  done
================================================================================
 
============== Density of States (DOS) calculation for DOWN spin ===============
Writing "52/592nano_DN_DOS.txt" ...  done
================================================================================
 
Writing bands to file "52/592nano.val_bands" ... done
 
================ Projected Density of States (pDOS) calculation ================
 
Constructing AM resolved functions  ...... done
Writing NGWF plot files in formats: CUBE DX ...  done
 
Performing overlap integrals ...  done
 
Computing pDOS weights ...  done
 
All bands spilling parameter =   3.14 %
Occupancy-weighted spilling parameter =   0.81 %
 
 => Outputting data for OptaDOS <=
 
Writing pDOS weights to file "52/592nano.val_pdos_bin" ... done
 
Writing band gradients to file "52/592nano.val_dome_bin" ... done
 
Writing Castep output cell file to "52/592nano-out.cell" ... done
 
 => Computing Gaussian smeared pDOS for UP spin<= 
Writing "52/592nano_UP_PDOS.txt" ...  done
 
 => Computing Gaussian smeared pDOS for DOWN spin<= 
Writing "52/592nano_DN_PDOS.txt" ...  done
 
 => Computing Occupancy-weighted Gaussian smeared pDOS for UP spin<= 
Writing "52/592nano_occ_UP_PDOS.txt" ...  done
  => Band centres for UP spin channel: 
 S band centre of group 1:  -19.821573 eV
 P band centre of group 1:   -8.367628 eV
  Band centres for UP spin channel done. <= 
  => Integrated number of electrons in each AM band for UP spin channel: 
 S num electrons of group 1:  316.603299
 P num electrons of group 1:  774.493484
  Integrated number of electrons for UP spin channel done. <= 
 
 => Computing Occupancy-weighted Gaussian smeared pDOS for DOWN spin<= 
Writing "52/592nano_occ_DN_PDOS.txt" ...  done
  => Band centres for DOWN spin channel: 
 S band centre of group 1:  -19.821573 eV
 P band centre of group 1:   -8.367628 eV
  Band centres for DOWN spin channel done. <=
  => Integrated number of electrons in each AM band for DOWN spin channel: 
 S num electrons of group 1:  316.603299
 P num electrons of group 1:  774.493484
  Integrated number of electrons for DOWN spin channel done. <=
================================================================================

------------------------------ TIMING INFORMATION ------------------------------
AVERAGE TIME:   20576.072s on    160 node(s)                                    
TOTAL TIME:     20576.082s on    160 node(s)                                    
================= AVERAGE TIMINGS FROM ALL NODES (CUMULATIVE) ==================
|| TAG                                    #calls    cpu time   %total  Gflops ||
|| work_imbalance                       :     1        0.00s   0.000%  ------ ||
|| paw_tcore_density                    :     1        0.01s   0.000%  ------ ||
|| sparse_set_to_garbage                :   237        0.01s   0.000%  ------ ||
|| paw_sphere_density_on_grid           :     1        0.01s   0.000%  ------ ||
|| basis_extract_function_from_box      :   403        0.02s   0.000%  ------ ||
|| ngwfs_initialise_from_radial         :     2        0.04s   0.000%  ------ ||
|| paw_dij_hartree                      :  1176        0.04s   0.000%  ------ ||
|| ewald_calculate_energy               :     1        0.12s   0.001%  ------ ||
|| density_init_guess_real              :     1        0.27s   0.001%  ------ ||
|| paw_dataset_init                     :     3        0.33s   0.002%  ------ ||
|| paw_tcore_hartree_on_grid            :     1        0.37s   0.002%  ------ ||
|| pseudo_make_structure_factor         :     1        0.52s   0.003%  ------ ||
|| sparse_init                          :     1        0.96s   0.005%  ------ ||
|| dense_normal_eigensolve              :     1        1.01s   0.005%  ------ ||
|| restart_kernel_write                 :    15        1.42s   0.007%  ------ ||
|| paw_species_calc_proj_prec_mat       :     1        2.18s   0.011%  ------ ||
|| sparse_embed_hotelling_invert_embed  :    27        5.86s   0.028%  ------ ||
|| sw_init                              :     1        7.53s   0.037%  ------ ||
|| ngwf_gradient_coeffs                 :    14        9.74s   0.047%  ------ ||
|| fourier_apply_box_pair               :  1006       11.72s   0.057%  2.268k ||
|| augmentation_screen_dij              :   884       17.09s   0.083%  ------ ||
|| projectors_init_fftbox_recip         :    85       31.52s   0.153%  ------ ||
|| integrals_kinetic                    :    27       38.63s   0.188%  ------ ||
|| function_ops_brappd_ketppd           :    56       41.43s   0.201%  ------ ||
|| projectors_func_ovlp_box             :    28       41.85s   0.203%  ------ ||
|| hartree_on_grid                      :   879       43.69s   0.212%  ------ ||
|| basis_copy_function_to_box           : 34315       45.47s   0.221%  ------ ||
|| paw_dij_xc                           :  1176       56.74s   0.276%  ------ ||
|| hamiltonian_energy_components        :     3       79.64s   0.387%  ------ ||
|| sparse_trace                         : 22040      123.30s   0.599%  ------ ||
|| eigenstates_pdos                     :     1      126.57s   0.615%  ------ ||
|| augmentation_density_on_grid         :   879      146.75s   0.713%  ------ ||
|| fourier_apply_cell_forward           :  7903      150.88s   0.733% 182.315 ||
|| fourier_apply_cell_backward          :  7904      154.88s   0.753% 177.620 ||
|| restart_ngwfs_tightbox_output        :    13      173.02s   0.841%  ------ ||
|| aug_nonlocal_mat                     :  1162      179.85s   0.874%  ------ ||
|| basis_dot_function_with_box          : 7.262M     200.75s   0.976%  ------ ||
|| eigenstates_calculate                :     1      256.94s   1.249%  ------ ||
|| xc_energy_potential                  :   878      312.97s   1.521%  ------ ||
|| dense_eigensolve                     :  1696      548.34s   2.665%  ------ ||
|| sparse_product                       : 18811      559.14s   2.717%  ------ ||
|| projectors_gradient_batch            :    28      645.11s   3.135%  ------ ||
|| basis_add_function_to_box            : 22.26M     723.28s   3.515%  ------ ||
|| cell_grid_extract_box_real           : 19794      766.70s   3.726%  ------ ||
|| cell_grid_deposit_box_real           : 65139      843.43s   4.099%  ------ ||
|| projectors_grad_precond_batch        :    28      893.04s   4.340%  ------ ||
|| integrals_locpot_mat_els_batch       :  1162      979.04s   4.758%  ------ ||
|| density_fftbox_deposit_to_cell       : 29886     1447.69s   7.036%  ------ ||
|| ngwf_gradient_build_batch            :    28     1703.29s   8.278%  ------ ||
|| properties_calculate                 :     1     1812.24s   8.808%  ------ ||
|| ngwf_gradient_batch                  :    28     1859.97s   9.039%  ------ ||
|| density_batch_row_sums               :  1758     1898.25s   9.226%  ------ ||
|| potential_apply_to_ngwf_batch        :  1162     2095.26s  10.183%  ------ ||
|| edft_diag_ngwf_ham                   :  1694     2101.48s  10.213%  ------ ||
|| fourier_apply_box                    : 107.9k    2432.33s  11.821%  3.867k ||
|| ngwf_gradient_lnv                    :    14     2474.68s  12.027%  ------ ||
|| density_fftbox_interpolate_multiply  : 29886     2837.08s  13.788%  ------ ||
|| integrals_locpot_dbl_grid            :   581     3088.88s  15.012%  ------ ||
|| edft_apply_smearing_operator         :   847     3557.06s  17.287%  ------ ||
|| density_batch_interp_deposit         :  1758     5310.03s  25.807%  ------ ||
|| density_on_dbl_grid                  :   879     7571.05s  36.795%  ------ ||
|| hamiltonian_lhxc_calculate           :   874     8460.69s  41.119%  ------ ||
|| edft_calculate                       :    14    15508.61s  75.372%  ------ ||
|| ngwf_cg_optimise                     :     1    18742.72s  91.090%  ------ ||
|| total_time                           :     1    20576.07s 100.000%  ------ ||
================================================================================
Overhead of generating timer report: 
- 0 ms averaging over threads,
- 25 ms ensuring consistency across MPI ranks,
- 0 ms printing in order.

Job completed: 31-10-2020 01:03 (-0000)

