 +---------------------------------------------------------------+
 |                                                               |
 |        ####### #     # ####### ####### ####### ######         |
 |        #     # ##    # #          #    #       #     #        |
 |        #     # # #   # #          #    #       #     #        |
 |        #     # #  #  # #####      #    #####   ######         |
 |        #     # #   # # #          #    #       #              |
 |        #     # #    ## #          #    #       #              |
 |        ####### #     # #######    #    ####### #              |
 |                                                               |
 |        Linear-Scaling Ab Initio Total Energy Program          |
 |                                                               |
 |          Release for academic collaborators of ODG            |
 |                                             Version 5.3.2.12  |
 |                                                               |
 +---------------------------------------------------------------+
 |                                                               |
 |  Authors:                                                     |
 |  Jacek Dziedzic, Peter D. Haynes, Nicholas D. M. Hine,        |
 |  Arash. A. Mostofi, Mike C. Payne and Chris-Kriton Skylaris   |
 |                                                               |
 |  Contributors:                                                |
 |  J. Aarons, L. Andrinopoulos, P. W. Avraam, R. A. Bell,       |
 |  A. Bhandari, G. A. Bramley, R. J. Charlton, S. J. Clark,     |
 |  R. J. Clements, G. C. Constantinescu, F. Corsetti,           |
 |  N. Corsini, O. Dieguez, S. M. M. Dubois, K. K. B. Duff,      |
 |  J. M. Escartin, A. Greco, H. Helal, Q. O. Hill, L. P. Lee,   |
 |  J.-H. Li, E. B. Linscott, G. Moynihan, D. D. O`Regan,        |
 |  O. K. Okan, M. J. S. Phipps, C. J. Pickard,                  |
 |  J. C. A. Prentice, M. I. J. Probert, L. E. Ratcliff,         |
 |  M. Robinson, A. Ruiz Serrano, J. S. Spencer, E. W. Tait,     |
 |  G. Teobaldi, D. Turban, V. Vitale, K. A. Wilkinson,          |
 |  C. Weber, J. C. Womack, N. Yeung and T. J. Zuehlsdorff       |
 |                                                               |
 |                                   Copyright (c) 2004-2020     |
 |                                                               |
 |  Please cite:                                                 |
 |  "Introducing ONETEP: Linear-scaling density functional       |
 |   simulations on parallel computers".                         |
 |   C.-K. Skylaris, P. D. Haynes, A. A. Mostofi, M. C. Payne.   |
 |   J. Chem. Phys. 122 084119 (2005).                           |
 |                                                               |
 |          in all publications arising from your use of ONETEP. |
 |                                                               |
 +---------------------------------------------------------------+
 |                                                               |
 |   ONETEP is based on developments described in the following  |
 |   publications:                                               |
 |                                                               |
 |  "Nonorthogonal generalized Wannier function pseudopotential  |
 |   plane-wave method".                                         |
 |   C.-K. Skylaris, A. A. Mostofi, P. D. Haynes, O. Dieguez,    |
 |   M. C. Payne.                                                |
 |   Phys. Rev. B 66 035119 (2002).                              |
 |                                                               |
 |  "Preconditioned iterative minimization for linear-scaling    |
 |   electronic structure calculations".                         |
 |   A. A. Mostofi, P. D. Haynes, C.-K. Skylaris, M. C. Payne.   |
 |   J. Chem. Phys. 119(17), pp.8842-8848 (2003).                |
 |                                                               |
 |  "Total-energy calculations on a real space grid with         |
 |   localized functions and a plane-wave basis".                |
 |   A. A. Mostofi, C.-K. Skylaris, P. D. Haynes, M. C. Payne.   |
 |   Comput. Phys. Commun. 147, pp.788-802 (2002).               |
 |                                                               |
 |  "Accurate kinetic energy evaluation in electronic structure  |
 |   calculations with localized functions on real space grids"  |
 |   C.-K. Skylaris, A. A. Mostofi, P. D. Haynes, C. J. Pickard, |
 |   M. C. Payne.                                                |
 |   Comput. Phys. Commun. 140, pp.315-322 (2001).               |
 |                                                               |
 |  "Accurate ionic forces and geometry optimization in linear-  |
 |   scaling density-functional theory with local orbitals"      |
 |   N. D. M. Hine, M. Robinson, P. D. Haynes, C.-K. Skylaris,   |
 |   M. C. Payne, and A. A. Mostofi.                             |
 |   Phys. Rev. B 83 195102 (2011).                              |
 |                                                               |
 +---------------------------------------------------------------+

Job started: 26-02-2020 03:14 (-0000)
 
Reading parameters from file "3.1661816_GO_manual_4x64graphite.dat" ...

WARNING: "cutoff_energy" not specified, but "psinc_spacing" specified.
         Using the latter to set the KE cutoff energy to  732.32021eV,
         thus *overriding* the default.

... done

If your calculation crashes here, before "Checking processes and threads..."
is displayed, then your stack size is insufficient.
If so, use "ulimit -s unlimited" at runtime.
You can disable this check with "check_stack_size F".

Checking processes and threads...
   Determining the default number of threads...
      No default threads set at compilation time: defaulting to 1.
      OpenMP library call suggests 4 threads.
      Hybrid MPI-OpenMP compilation detected.
      Number of MPI processes > 1.
      OMP_NUM_THREADS environment variable present and
      its value matches the one obtained from the OpenMP library call.
      Using this value as default.
      Default threads: 4
      Default applies to threads_max and threads_num_fftboxes.
      Settings in the input file override this default.
   ... done

   Running with 40 MPI processes.
   There are 10 MPI processes running on the same node as the root process.
   Each MPI process is using: 
               1 threads for simulation cell FFTs.
               1 threads for parallel FFT box operations.
               4 threads for loops over batched FFT box operations.
               4 threads in other parallel regions.
... done

Basic input checks...
Resetting ngwf_cg_rotate to TRUE for EDFT calculations
... done

Reading geometry and species blocks from file "3.1661816_GO_manual_4x64graphite.dat" ...
    
  PSINC grid spacing along a1 set to   0.511215680000a0 from input file.
  PSINC grid spacing along a2 set to   0.531284090000a0 from input file.
  PSINC grid spacing along a3 set to   0.507053250000a0 from input file.
  Number of PPD points along a3 set to 1.  This is 
  the default value, it may have been provided also in the input file.
... done
 Writing xyz coordinates to file "3.1661816_GO_manual_4x64graphite.xyz" ... done


--------------------------------------------------------------------------------
---------------------------------- INPUT FILE ----------------------------------
--------------------------------------------------------------------------------

task : singlepoint                                                              
do_properties : true                                                            
dx_format T                                                                     
edft T                                                                          
output_detail VERBOSE                                                           
write_xyz T                                                                     
xc_functional VDWDF2                                                            
PSINC_SPACING 0.51121568 0.53128409 0.50705325                                  
paw T                                                                           
pdos_max_l = 2                                                                  
dos_smear  0.1 eV                                                               
popn_calculate T                                                                
PDOS_PSEUDOATOMIC T                                                             
PDOS_REDUCE_SWS F                                                               
PDOS_CONSTRUCT_BASIS F                                                          
PDOS_LOWDIN T                                                                   
PDOS_ORTH_ATOM_BLOCKS F                                                         
PDOS_LCAO_OPTIMIZE F                                                            
pdos_optados_output T                                                           
homo_plot 0                                                                     
lumo_plot 0                                                                     
homo_dens_plot -1                                                               
lumo_dens_plot -1                                                               
%BLOCK SPECIES                                                                  
C C 6 4 9.0                                                                     
%ENDBLOCK SPECIES                                                               
%BLOCK SPECIES_POT                                                              
C "~/pp/paw/c_pbe_abinit.paw"                                                   
%ENDBLOCK SPECIES_POT                                                           
%BLOCK SPECIES_ATOMIC_SET                                                       
C "SOLVE conf=2s2 2p2"                                                          
%ENDBLOCK SPECIES_ATOMIC_SET                                                    
%BLOCK LATTICE_CART                                                             
32.21  0.00  0.00                                                               
0.00 18.59  0.00                                                                
0.00  0.00 59.83                                                                
%ENDBLOCK LATTICE_CART                                                          
%BLOCK POSITIONS_ABS                                                            
C  0.00  0.00  2.99                                                             
C  0.00  0.00 14.96                                                             
C  0.00  0.00 26.92                                                             
C  0.00  0.00 38.89                                                             
C  0.00  0.00 50.86                                                             
C  0.00  4.65  2.99                                                             
C  0.00  4.65 14.96                                                             
C  0.00  4.65 26.92                                                             
C  0.00  4.65 38.89                                                             
C  0.00  4.65 50.86                                                             
C  4.03  2.32  2.99                                                             
C  4.03  2.32 14.96                                                             
C  4.03  2.32 26.92                                                             
C  4.03  2.32 38.89                                                             
C  4.03  2.32 50.86                                                             
C  8.05  0.00  2.99                                                             
C  8.05  0.00 14.96                                                             
C  8.05  0.00 26.92                                                             
C  8.05  0.00 38.89                                                             
C  8.05  0.00 50.86                                                             
C  0.00  9.30  2.99                                                             
C  0.00  9.30 14.96                                                             
C  0.00  9.30 26.92                                                             
C  0.00  9.30 38.89                                                             
C  0.00  9.30 50.86                                                             
C  4.03  6.97  2.99                                                             
C  4.03  6.97 14.96                                                             
C  4.03  6.97 26.92                                                             
C  4.03  6.97 38.89                                                             
C  4.03  6.97 50.86                                                             
C  8.05  4.65  2.99                                                             
C  8.05  4.65 14.96                                                             
C  8.05  4.65 26.92                                                             
C  8.05  4.65 38.89                                                             
C  8.05  4.65 50.86                                                             
C 12.08  2.32  2.99                                                             
C 12.08  2.32 14.96                                                             
C 12.08  2.32 26.92                                                             
C 12.08  2.32 38.89                                                             
C 12.08  2.32 50.86                                                             
C 16.10  0.00  2.99                                                             
C 16.10  0.00 14.96                                                             
C 16.10  0.00 26.92                                                             
C 16.10  0.00 38.89                                                             
C 16.10  0.00 50.86                                                             
C  0.00 13.95  2.99                                                             
C  0.00 13.95 14.96                                                             
C  0.00 13.95 26.92                                                             
C  0.00 13.95 38.89                                                             
C  0.00 13.95 50.86                                                             
C  4.03 11.62  2.99                                                             
C  4.03 11.62 14.96                                                             
C  4.03 11.62 26.92                                                             
C  4.03 11.62 38.89                                                             
C  4.03 11.62 50.86                                                             
C  8.05  9.30  2.99                                                             
C  8.05  9.30 14.96                                                             
C  8.05  9.30 26.92                                                             
C  8.05  9.30 38.89                                                             
C  8.05  9.30 50.86                                                             
C 12.08  6.97  2.99                                                             
C 12.08  6.97 14.96                                                             
C 12.08  6.97 26.92                                                             
C 12.08  6.97 38.89                                                             
C 12.08  6.97 50.86                                                             
C 16.10  4.65  2.99                                                             
C 16.10  4.65 14.96                                                             
C 16.10  4.65 26.92                                                             
C 16.10  4.65 38.89                                                             
C 16.10  4.65 50.86                                                             
C 20.13  2.32  2.99                                                             
C 20.13  2.32 14.96                                                             
C 20.13  2.32 26.92                                                             
C 20.13  2.32 38.89                                                             
C 20.13  2.32 50.86                                                             
C 24.16  0.00  2.99                                                             
C 24.16  0.00 14.96                                                             
C 24.16  0.00 26.92                                                             
C 24.16  0.00 38.89                                                             
C 24.16  0.00 50.86                                                             
C  4.03 16.27  2.99                                                             
C  4.03 16.27 14.96                                                             
C  4.03 16.27 26.92                                                             
C  4.03 16.27 38.89                                                             
C  4.03 16.27 50.86                                                             
C  8.05 13.95  2.99                                                             
C  8.05 13.95 14.96                                                             
C  8.05 13.95 26.92                                                             
C  8.05 13.95 38.89                                                             
C  8.05 13.95 50.86                                                             
C 12.08 11.62  2.99                                                             
C 12.08 11.62 14.96                                                             
C 12.08 11.62 26.92                                                             
C 12.08 11.62 38.89                                                             
C 12.08 11.62 50.86                                                             
C 16.10  9.30  2.99                                                             
C 16.10  9.30 14.96                                                             
C 16.10  9.30 26.92                                                             
C 16.10  9.30 38.89                                                             
C 16.10  9.30 50.86                                                             
C 20.13  6.97  2.99                                                             
C 20.13  6.97 14.96                                                             
C 20.13  6.97 26.92                                                             
C 20.13  6.97 38.89                                                             
C 20.13  6.97 50.86                                                             
C 24.16  4.65  2.99                                                             
C 24.16  4.65 14.96                                                             
C 24.16  4.65 26.92                                                             
C 24.16  4.65 38.89                                                             
C 24.16  4.65 50.86                                                             
C 28.18  2.32  2.99                                                             
C 28.18  2.32 14.96                                                             
C 28.18  2.32 26.92                                                             
C 28.18  2.32 38.89                                                             
C 28.18  2.32 50.86                                                             
C 12.08 16.27  2.99                                                             
C 12.08 16.27 14.96                                                             
C 12.08 16.27 26.92                                                             
C 12.08 16.27 38.89                                                             
C 12.08 16.27 50.86                                                             
C 16.10 13.95  2.99                                                             
C 16.10 13.95 14.96                                                             
C 16.10 13.95 26.92                                                             
C 16.10 13.95 38.89                                                             
C 16.10 13.95 50.86                                                             
C 20.13 11.62  2.99                                                             
C 20.13 11.62 14.96                                                             
C 20.13 11.62 26.92                                                             
C 20.13 11.62 38.89                                                             
C 20.13 11.62 50.86                                                             
C 24.16  9.30  2.99                                                             
C 24.16  9.30 14.96                                                             
C 24.16  9.30 26.92                                                             
C 24.16  9.30 38.89                                                             
C 24.16  9.30 50.86                                                             
C 28.18  6.97  2.99                                                             
C 28.18  6.97 14.96                                                             
C 28.18  6.97 26.92                                                             
C 28.18  6.97 38.89                                                             
C 28.18  6.97 50.86                                                             
C 20.13 16.27  2.99                                                             
C 20.13 16.27 14.96                                                             
C 20.13 16.27 26.92                                                             
C 20.13 16.27 38.89                                                             
C 20.13 16.27 50.86                                                             
C 24.16 13.95  2.99                                                             
C 24.16 13.95 14.96                                                             
C 24.16 13.95 26.92                                                             
C 24.16 13.95 38.89                                                             
C 24.16 13.95 50.86                                                             
C 28.18 11.62  2.99                                                             
C 28.18 11.62 14.96                                                             
C 28.18 11.62 26.92                                                             
C 28.18 11.62 38.89                                                             
C 28.18 11.62 50.86                                                             
C 28.18 16.27  2.99                                                             
C 28.18 16.27 14.96                                                             
C 28.18 16.27 26.92                                                             
C 28.18 16.27 38.89                                                             
C 28.18 16.27 50.86                                                             
C  0.00  0.00  8.97                                                             
C  0.00  0.00 20.94                                                             
C  0.00  0.00 32.91                                                             
C  0.00  0.00 44.87                                                             
C  0.00  0.00 56.84                                                             
C  0.00  4.65  8.97                                                             
C  0.00  4.65 20.94                                                             
C  0.00  4.65 32.91                                                             
C  0.00  4.65 44.87                                                             
C  0.00  4.65 56.84                                                             
C  4.03  2.32  8.97                                                             
C  4.03  2.32 20.94                                                             
C  4.03  2.32 32.91                                                             
C  4.03  2.32 44.87                                                             
C  4.03  2.32 56.84                                                             
C  8.05  0.00  8.97                                                             
C  8.05  0.00 20.94                                                             
C  8.05  0.00 32.91                                                             
C  8.05  0.00 44.87                                                             
C  8.05  0.00 56.84                                                             
C  0.00  9.30  8.97                                                             
C  0.00  9.30 20.94                                                             
C  0.00  9.30 32.91                                                             
C  0.00  9.30 44.87                                                             
C  0.00  9.30 56.84                                                             
C  4.03  6.97  8.97                                                             
C  4.03  6.97 20.94                                                             
C  4.03  6.97 32.91                                                             
C  4.03  6.97 44.87                                                             
C  4.03  6.97 56.84                                                             
C  8.05  4.65  8.97                                                             
C  8.05  4.65 20.94                                                             
C  8.05  4.65 32.91                                                             
C  8.05  4.65 44.87                                                             
C  8.05  4.65 56.84                                                             
C 12.08  2.32  8.97                                                             
C 12.08  2.32 20.94                                                             
C 12.08  2.32 32.91                                                             
C 12.08  2.32 44.87                                                             
C 12.08  2.32 56.84                                                             
C 16.10  0.00  8.97                                                             
C 16.10  0.00 20.94                                                             
C 16.10  0.00 32.91                                                             
C 16.10  0.00 44.87                                                             
C 16.10  0.00 56.84                                                             
C  0.00 13.95  8.97                                                             
C  0.00 13.95 20.94                                                             
C  0.00 13.95 32.91                                                             
C  0.00 13.95 44.87                                                             
C  0.00 13.95 56.84                                                             
C  4.03 11.62  8.97                                                             
C  4.03 11.62 20.94                                                             
C  4.03 11.62 32.91                                                             
C  4.03 11.62 44.87                                                             
C  4.03 11.62 56.84                                                             
C  8.05  9.30  8.97                                                             
C  8.05  9.30 20.94                                                             
C  8.05  9.30 32.91                                                             
C  8.05  9.30 44.87                                                             
C  8.05  9.30 56.84                                                             
C 12.08  6.97  8.97                                                             
C 12.08  6.97 20.94                                                             
C 12.08  6.97 32.91                                                             
C 12.08  6.97 44.87                                                             
C 12.08  6.97 56.84                                                             
C 16.10  4.65  8.97                                                             
C 16.10  4.65 20.94                                                             
C 16.10  4.65 32.91                                                             
C 16.10  4.65 44.87                                                             
C 16.10  4.65 56.84                                                             
C 20.13  2.32  8.97                                                             
C 20.13  2.32 20.94                                                             
C 20.13  2.32 32.91                                                             
C 20.13  2.32 44.87                                                             
C 20.13  2.32 56.84                                                             
C 24.16  0.00  8.97                                                             
C 24.16  0.00 20.94                                                             
C 24.16  0.00 32.91                                                             
C 24.16  0.00 44.87                                                             
C 24.16  0.00 56.84                                                             
C  4.03 16.27  8.97                                                             
C  4.03 16.27 20.94                                                             
C  4.03 16.27 32.91                                                             
C  4.03 16.27 44.87                                                             
C  4.03 16.27 56.84                                                             
C  8.05 13.95  8.97                                                             
C  8.05 13.95 20.94                                                             
C  8.05 13.95 32.91                                                             
C  8.05 13.95 44.87                                                             
C  8.05 13.95 56.84                                                             
C 12.08 11.62  8.97                                                             
C 12.08 11.62 20.94                                                             
C 12.08 11.62 32.91                                                             
C 12.08 11.62 44.87                                                             
C 12.08 11.62 56.84                                                             
C 16.10  9.30  8.97                                                             
C 16.10  9.30 20.94                                                             
C 16.10  9.30 32.91                                                             
C 16.10  9.30 44.87                                                             
C 16.10  9.30 56.84                                                             
C 20.13  6.97  8.97                                                             
C 20.13  6.97 20.94                                                             
C 20.13  6.97 32.91                                                             
C 20.13  6.97 44.87                                                             
C 20.13  6.97 56.84                                                             
C 24.16  4.65  8.97                                                             
C 24.16  4.65 20.94                                                             
C 24.16  4.65 32.91                                                             
C 24.16  4.65 44.87                                                             
C 24.16  4.65 56.84                                                             
C 28.18  2.32  8.97                                                             
C 28.18  2.32 20.94                                                             
C 28.18  2.32 32.91                                                             
C 28.18  2.32 44.87                                                             
C 28.18  2.32 56.84                                                             
C 12.08 16.27  8.97                                                             
C 12.08 16.27 20.94                                                             
C 12.08 16.27 32.91                                                             
C 12.08 16.27 44.87                                                             
C 12.08 16.27 56.84                                                             
C 16.10 13.95  8.97                                                             
C 16.10 13.95 20.94                                                             
C 16.10 13.95 32.91                                                             
C 16.10 13.95 44.87                                                             
C 16.10 13.95 56.84                                                             
C 20.13 11.62  8.97                                                             
C 20.13 11.62 20.94                                                             
C 20.13 11.62 32.91                                                             
C 20.13 11.62 44.87                                                             
C 20.13 11.62 56.84                                                             
C 24.16  9.30  8.97                                                             
C 24.16  9.30 20.94                                                             
C 24.16  9.30 32.91                                                             
C 24.16  9.30 44.87                                                             
C 24.16  9.30 56.84                                                             
C 28.18  6.97  8.97                                                             
C 28.18  6.97 20.94                                                             
C 28.18  6.97 32.91                                                             
C 28.18  6.97 44.87                                                             
C 28.18  6.97 56.84                                                             
C 20.13 16.27  8.97                                                             
C 20.13 16.27 20.94                                                             
C 20.13 16.27 32.91                                                             
C 20.13 16.27 44.87                                                             
C 20.13 16.27 56.84                                                             
C 24.16 13.95  8.97                                                             
C 24.16 13.95 20.94                                                             
C 24.16 13.95 32.91                                                             
C 24.16 13.95 44.87                                                             
C 24.16 13.95 56.84                                                             
C 28.18 11.62  8.97                                                             
C 28.18 11.62 20.94                                                             
C 28.18 11.62 32.91                                                             
C 28.18 11.62 44.87                                                             
C 28.18 11.62 56.84                                                             
C 28.18 16.27  8.97                                                             
C 28.18 16.27 20.94                                                             
C 28.18 16.27 32.91                                                             
C 28.18 16.27 44.87                                                             
C 28.18 16.27 56.84                                                             
C  1.34  2.32  2.99                                                             
C  1.34  2.32 14.96                                                             
C  1.34  2.32 26.92                                                             
C  1.34  2.32 38.89                                                             
C  1.34  2.32 50.86                                                             
C  5.37  0.00  2.99                                                             
C  5.37  0.00 14.96                                                             
C  5.37  0.00 26.92                                                             
C  5.37  0.00 38.89                                                             
C  5.37  0.00 50.86                                                             
C  1.34  6.97  2.99                                                             
C  1.34  6.97 14.96                                                             
C  1.34  6.97 26.92                                                             
C  1.34  6.97 38.89                                                             
C  1.34  6.97 50.86                                                             
C  5.37  4.65  2.99                                                             
C  5.37  4.65 14.96                                                             
C  5.37  4.65 26.92                                                             
C  5.37  4.65 38.89                                                             
C  5.37  4.65 50.86                                                             
C  9.39  2.32  2.99                                                             
C  9.39  2.32 14.96                                                             
C  9.39  2.32 26.92                                                             
C  9.39  2.32 38.89                                                             
C  9.39  2.32 50.86                                                             
C 13.42  0.00  2.99                                                             
C 13.42  0.00 14.96                                                             
C 13.42  0.00 26.92                                                             
C 13.42  0.00 38.89                                                             
C 13.42  0.00 50.86                                                             
C  1.34 11.62  2.99                                                             
C  1.34 11.62 14.96                                                             
C  1.34 11.62 26.92                                                             
C  1.34 11.62 38.89                                                             
C  1.34 11.62 50.86                                                             
C  5.37  9.30  2.99                                                             
C  5.37  9.30 14.96                                                             
C  5.37  9.30 26.92                                                             
C  5.37  9.30 38.89                                                             
C  5.37  9.30 50.86                                                             
C  9.39  6.97  2.99                                                             
C  9.39  6.97 14.96                                                             
C  9.39  6.97 26.92                                                             
C  9.39  6.97 38.89                                                             
C  9.39  6.97 50.86                                                             
C 13.42  4.65  2.99                                                             
C 13.42  4.65 14.96                                                             
C 13.42  4.65 26.92                                                             
C 13.42  4.65 38.89                                                             
C 13.42  4.65 50.86                                                             
C 17.45  2.32  2.99                                                             
C 17.45  2.32 14.96                                                             
C 17.45  2.32 26.92                                                             
C 17.45  2.32 38.89                                                             
C 17.45  2.32 50.86                                                             
C 21.47  0.00  2.99                                                             
C 21.47  0.00 14.96                                                             
C 21.47  0.00 26.92                                                             
C 21.47  0.00 38.89                                                             
C 21.47  0.00 50.86                                                             
C  1.34 16.27  2.99                                                             
C  1.34 16.27 14.96                                                             
C  1.34 16.27 26.92                                                             
C  1.34 16.27 38.89                                                             
C  1.34 16.27 50.86                                                             
C  5.37 13.95  2.99                                                             
C  5.37 13.95 14.96                                                             
C  5.37 13.95 26.92                                                             
C  5.37 13.95 38.89                                                             
C  5.37 13.95 50.86                                                             
C  9.39 11.62  2.99                                                             
C  9.39 11.62 14.96                                                             
C  9.39 11.62 26.92                                                             
C  9.39 11.62 38.89                                                             
C  9.39 11.62 50.86                                                             
C 13.42  9.30  2.99                                                             
C 13.42  9.30 14.96                                                             
C 13.42  9.30 26.92                                                             
C 13.42  9.30 38.89                                                             
C 13.42  9.30 50.86                                                             
C 17.45  6.97  2.99                                                             
C 17.45  6.97 14.96                                                             
C 17.45  6.97 26.92                                                             
C 17.45  6.97 38.89                                                             
C 17.45  6.97 50.86                                                             
C 21.47  4.65  2.99                                                             
C 21.47  4.65 14.96                                                             
C 21.47  4.65 26.92                                                             
C 21.47  4.65 38.89                                                             
C 21.47  4.65 50.86                                                             
C 25.50  2.32  2.99                                                             
C 25.50  2.32 14.96                                                             
C 25.50  2.32 26.92                                                             
C 25.50  2.32 38.89                                                             
C 25.50  2.32 50.86                                                             
C 29.52  0.00  2.99                                                             
C 29.52  0.00 14.96                                                             
C 29.52  0.00 26.92                                                             
C 29.52  0.00 38.89                                                             
C 29.52  0.00 50.86                                                             
C  9.39 16.27  2.99                                                             
C  9.39 16.27 14.96                                                             
C  9.39 16.27 26.92                                                             
C  9.39 16.27 38.89                                                             
C  9.39 16.27 50.86                                                             
C 13.42 13.95  2.99                                                             
C 13.42 13.95 14.96                                                             
C 13.42 13.95 26.92                                                             
C 13.42 13.95 38.89                                                             
C 13.42 13.95 50.86                                                             
C 17.45 11.62  2.99                                                             
C 17.45 11.62 14.96                                                             
C 17.45 11.62 26.92                                                             
C 17.45 11.62 38.89                                                             
C 17.45 11.62 50.86                                                             
C 21.47  9.30  2.99                                                             
C 21.47  9.30 14.96                                                             
C 21.47  9.30 26.92                                                             
C 21.47  9.30 38.89                                                             
C 21.47  9.30 50.86                                                             
C 25.50  6.97  2.99                                                             
C 25.50  6.97 14.96                                                             
C 25.50  6.97 26.92                                                             
C 25.50  6.97 38.89                                                             
C 25.50  6.97 50.86                                                             
C 29.52  4.65  2.99                                                             
C 29.52  4.65 14.96                                                             
C 29.52  4.65 26.92                                                             
C 29.52  4.65 38.89                                                             
C 29.52  4.65 50.86                                                             
C 17.45 16.27  2.99                                                             
C 17.45 16.27 14.96                                                             
C 17.45 16.27 26.92                                                             
C 17.45 16.27 38.89                                                             
C 17.45 16.27 50.86                                                             
C 21.47 13.95  2.99                                                             
C 21.47 13.95 14.96                                                             
C 21.47 13.95 26.92                                                             
C 21.47 13.95 38.89                                                             
C 21.47 13.95 50.86                                                             
C 25.50 11.62  2.99                                                             
C 25.50 11.62 14.96                                                             
C 25.50 11.62 26.92                                                             
C 25.50 11.62 38.89                                                             
C 25.50 11.62 50.86                                                             
C 29.52  9.30  2.99                                                             
C 29.52  9.30 14.96                                                             
C 29.52  9.30 26.92                                                             
C 29.52  9.30 38.89                                                             
C 29.52  9.30 50.86                                                             
C 25.50 16.27  2.99                                                             
C 25.50 16.27 14.96                                                             
C 25.50 16.27 26.92                                                             
C 25.50 16.27 38.89                                                             
C 25.50 16.27 50.86                                                             
C 29.52 13.95  2.99                                                             
C 29.52 13.95 14.96                                                             
C 29.52 13.95 26.92                                                             
C 29.52 13.95 38.89                                                             
C 29.52 13.95 50.86                                                             
C  2.68  0.00  8.97                                                             
C  2.68  0.00 20.94                                                             
C  2.68  0.00 32.91                                                             
C  2.68  0.00 44.87                                                             
C  2.68  0.00 56.84                                                             
C  2.68  4.65  8.97                                                             
C  2.68  4.65 20.94                                                             
C  2.68  4.65 32.91                                                             
C  2.68  4.65 44.87                                                             
C  2.68  4.65 56.84                                                             
C  6.71  2.32  8.97                                                             
C  6.71  2.32 20.94                                                             
C  6.71  2.32 32.91                                                             
C  6.71  2.32 44.87                                                             
C  6.71  2.32 56.84                                                             
C 10.74  0.00  8.97                                                             
C 10.74  0.00 20.94                                                             
C 10.74  0.00 32.91                                                             
C 10.74  0.00 44.87                                                             
C 10.74  0.00 56.84                                                             
C  2.68  9.30  8.97                                                             
C  2.68  9.30 20.94                                                             
C  2.68  9.30 32.91                                                             
C  2.68  9.30 44.87                                                             
C  2.68  9.30 56.84                                                             
C  6.71  6.97  8.97                                                             
C  6.71  6.97 20.94                                                             
C  6.71  6.97 32.91                                                             
C  6.71  6.97 44.87                                                             
C  6.71  6.97 56.84                                                             
C 10.74  4.65  8.97                                                             
C 10.74  4.65 20.94                                                             
C 10.74  4.65 32.91                                                             
C 10.74  4.65 44.87                                                             
C 10.74  4.65 56.84                                                             
C 14.76  2.32  8.97                                                             
C 14.76  2.32 20.94                                                             
C 14.76  2.32 32.91                                                             
C 14.76  2.32 44.87                                                             
C 14.76  2.32 56.84                                                             
C 18.79  0.00  8.97                                                             
C 18.79  0.00 20.94                                                             
C 18.79  0.00 32.91                                                             
C 18.79  0.00 44.87                                                             
C 18.79  0.00 56.84                                                             
C  2.68 13.95  8.97                                                             
C  2.68 13.95 20.94                                                             
C  2.68 13.95 32.91                                                             
C  2.68 13.95 44.87                                                             
C  2.68 13.95 56.84                                                             
C  6.71 11.62  8.97                                                             
C  6.71 11.62 20.94                                                             
C  6.71 11.62 32.91                                                             
C  6.71 11.62 44.87                                                             
C  6.71 11.62 56.84                                                             
C 10.74  9.30  8.97                                                             
C 10.74  9.30 20.94                                                             
C 10.74  9.30 32.91                                                             
C 10.74  9.30 44.87                                                             
C 10.74  9.30 56.84                                                             
C 14.76  6.97  8.97                                                             
C 14.76  6.97 20.94                                                             
C 14.76  6.97 32.91                                                             
C 14.76  6.97 44.87                                                             
C 14.76  6.97 56.84                                                             
C 18.79  4.65  8.97                                                             
C 18.79  4.65 20.94                                                             
C 18.79  4.65 32.91                                                             
C 18.79  4.65 44.87                                                             
C 18.79  4.65 56.84                                                             
C 22.81  2.32  8.97                                                             
C 22.81  2.32 20.94                                                             
C 22.81  2.32 32.91                                                             
C 22.81  2.32 44.87                                                             
C 22.81  2.32 56.84                                                             
C 26.84  0.00  8.97                                                             
C 26.84  0.00 20.94                                                             
C 26.84  0.00 32.91                                                             
C 26.84  0.00 44.87                                                             
C 26.84  0.00 56.84                                                             
C  6.71 16.27  8.97                                                             
C  6.71 16.27 20.94                                                             
C  6.71 16.27 32.91                                                             
C  6.71 16.27 44.87                                                             
C  6.71 16.27 56.84                                                             
C 10.74 13.95  8.97                                                             
C 10.74 13.95 20.94                                                             
C 10.74 13.95 32.91                                                             
C 10.74 13.95 44.87                                                             
C 10.74 13.95 56.84                                                             
C 14.76 11.62  8.97                                                             
C 14.76 11.62 20.94                                                             
C 14.76 11.62 32.91                                                             
C 14.76 11.62 44.87                                                             
C 14.76 11.62 56.84                                                             
C 18.79  9.30  8.97                                                             
C 18.79  9.30 20.94                                                             
C 18.79  9.30 32.91                                                             
C 18.79  9.30 44.87                                                             
C 18.79  9.30 56.84                                                             
C 22.81  6.97  8.97                                                             
C 22.81  6.97 20.94                                                             
C 22.81  6.97 32.91                                                             
C 22.81  6.97 44.87                                                             
C 22.81  6.97 56.84                                                             
C 26.84  4.65  8.97                                                             
C 26.84  4.65 20.94                                                             
C 26.84  4.65 32.91                                                             
C 26.84  4.65 44.87                                                             
C 26.84  4.65 56.84                                                             
C 30.86  2.32  8.97                                                             
C 30.86  2.32 20.94                                                             
C 30.86  2.32 32.91                                                             
C 30.86  2.32 44.87                                                             
C 30.86  2.32 56.84                                                             
C 14.76 16.27  8.97                                                             
C 14.76 16.27 20.94                                                             
C 14.76 16.27 32.91                                                             
C 14.76 16.27 44.87                                                             
C 14.76 16.27 56.84                                                             
C 18.79 13.95  8.97                                                             
C 18.79 13.95 20.94                                                             
C 18.79 13.95 32.91                                                             
C 18.79 13.95 44.87                                                             
C 18.79 13.95 56.84                                                             
C 22.81 11.62  8.97                                                             
C 22.81 11.62 20.94                                                             
C 22.81 11.62 32.91                                                             
C 22.81 11.62 44.87                                                             
C 22.81 11.62 56.84                                                             
C 26.84  9.30  8.97                                                             
C 26.84  9.30 20.94                                                             
C 26.84  9.30 32.91                                                             
C 26.84  9.30 44.87                                                             
C 26.84  9.30 56.84                                                             
C 30.86  6.97  8.97                                                             
C 30.86  6.97 20.94                                                             
C 30.86  6.97 32.91                                                             
C 30.86  6.97 44.87                                                             
C 30.86  6.97 56.84                                                             
C 22.81 16.27  8.97                                                             
C 22.81 16.27 20.94                                                             
C 22.81 16.27 32.91                                                             
C 22.81 16.27 44.87                                                             
C 22.81 16.27 56.84                                                             
C 26.84 13.95  8.97                                                             
C 26.84 13.95 20.94                                                             
C 26.84 13.95 32.91                                                             
C 26.84 13.95 44.87                                                             
C 26.84 13.95 56.84                                                             
C 30.86 11.62  8.97                                                             
C 30.86 11.62 20.94                                                             
C 30.86 11.62 32.91                                                             
C 30.86 11.62 44.87                                                             
C 30.86 11.62 56.84                                                             
C 30.86 16.27  8.97                                                             
C 30.86 16.27 20.94                                                             
C 30.86 16.27 32.91                                                             
C 30.86 16.27 44.87                                                             
C 30.86 16.27 56.84                                                             
%ENDBLOCK POSITIONS_ABS                                                         

--------------------------------------------------------------------------------
-------------------------------- END INPUT FILE --------------------------------
--------------------------------------------------------------------------------


 
<<<<<<<<<<<<<<<<<<<<<<<<<<<<<<<<< Full system >>>>>>>>>>>>>>>>>>>>>>>>>>>>>>>>>>
<<<<<<<<<<<<<<<<<<<<<<<<<<< PAW Dataset information >>>>>>>>>>>>>>>>>>>>>>>>>>>
File: ~/pp/paw/c_pbe_abinit.paw; rc = 1.25 bohr; shape type =  3; rshape = 1.25 bohr;
  Atomic number:  6;  ionic charge:  4.000000
    Partial Wave 1: l = 0
    Partial Wave 2: l = 0
    Partial Wave 3: l = 1
    Partial Wave 4: l = 1
  Core charge supplied for Nonlinear Core Corrections
<<<<<<<<<<<<<<<<<<<<<<<<<<<<<<<<<<<<<<< >>>>>>>>>>>>>>>>>>>>>>>>>>>>>>>>>>>>>>>

-------------------------- Atom counting information ---------------------------
Symbol    Natoms    Nngwfs    Nprojs
  C        640      2560      5120
.......   ......    ......    ......
Totals:    640      2560      5120
--------------------------------------------------------------------------------

=============================== PSINC grid sizes ===============================
                      Simulation cell:   63 x  35 x 118
                              FFT-box:   63 x  35 x 117
                                  PPD:    7 x   5 x   1
Grid space d1=  0.511269841270a0 (KE cutoff=  29.06054Eh = 790.77748eV)
Grid space d2=  0.531142857143a0 (KE cutoff=  26.92659Eh = 732.70972eV)
Grid space d3=  0.507033898305a0 (KE cutoff=  29.54813Eh = 804.04555eV)
================================================================================
  
WARNING in cell_grid_distribute:
Average of less than one 23-slab per node, so workload cannot be
equally balanced between nodes.

********************* Fourier parallelisation information **********************
       Coarse grid (whole simulation cell) dimensions:     63    35   118
          Real-space ('12') slabs/node (min max mean):      2     3     2
         Recip-space ('23') slabs/node (min max mean):      0     1     0
********************************************************************************

********************* Fourier parallelisation information **********************
       Double grid (whole simulation cell) dimensions:    126    70   236
          Real-space ('12') slabs/node (min max mean):      5     6     5
         Recip-space ('23') slabs/node (min max mean):      1     2     1
********************************************************************************

Atom SCF Calculation for C  : Z (AE atom) =   6 : Z (PS atom) =   4
Config String: 2s2 2p2
Orbitals (num,occ):  2     2.00 2.00
Orbitals   (num,l):  2        0    1
Real-space Grid (nr,dr,rmax): 1293    0.0069659443    9.0000000000
Spherical Bessel Basis (nsws,lmax,cutoff):   37    2  161.4736382572
Confining potential (l,width,scale):  0    3.0000000000  100.0000000000
Confining potential (l,width,scale):  1    3.0000000000  100.0000000000
  1         -5.4691149987   -1.3647045835    4.5135257941   -1.6713568800
  2         -5.5214542834   -1.4154291535    4.4635199061   -1.6585170582
  3         -5.5221055910   -1.4439161209    4.4342087028   -1.6520281659
  4         -5.5287901521   -1.4522301802    4.4259176063   -1.6507873939
  5         -5.5308251003   -1.4557840400    4.4224142384   -1.6502632738
  6         -5.5317252094   -1.4571386008    4.4211068249   -1.6500892907
  7         -5.5320765973   -1.4576738924    4.4205997642   -1.6500256779
  8         -5.5322192721   -1.4578833190    4.4204056023   -1.6500032912
  9         -5.5322765240   -1.4579657561    4.4203308649   -1.6499954152
 10         -5.5322995843   -1.4579982639    4.4203020904   -1.6499927055
 11         -5.5323088576   -1.4580111317    4.4202909828   -1.6499917962
 12         -5.5323125859   -1.4580162439    4.4202866844   -1.6499915030
 13         -5.5323140836   -1.4580182832    4.4202850159   -1.6499914143
 14         -5.5323146847   -1.4580191002    4.4202843659   -1.6499913905
 15         -5.5323149258   -1.4580194290    4.4202841117   -1.6499913858
 16         -5.5323150224   -1.4580195619    4.4202840119   -1.6499913859
Atom SCF converged after  16 iterations to a total energy of     -5.53231502

Determining parallel strategy ...
... using space-filling curve
... NGWF load balancing: max     64;  min     64;  average     64
... Projector load balancing: max    128;  min    128;  average    128
... done
Calculating Ewald energy ...
              Ewald: real-space energy =    9534.921797
        Ewald: reciprocal-space energy =       0.038880
         Ewald: (sum_charge)**2 Energy =   11534.361834
         Ewald: (sum_charge**2) Energy =     911.871369
                          Ewald Energy =   -2911.272526
Basis initialisation ...... NGWF spheres initialised
... Projector spheres initialised
... NGWF tight boxes initialised
... Projector tight boxes initialised
... Tight-boxes gathered
... NGWF basis size (local,global):     694868  27907776
... PAW projector initialisation
... done

============================= Charge Augmentation ==============================
                           Aug box size:   11 x  11 x  11
================================================================================

========================== Sparse matrix information ===========================
                        Overlap matrix filling:  44.84%
                        Density kernel filling: 100.00%
              NGWF-Proj overlap matrix filling:  13.12%
                    Aug Overlap matrix filling:  47.97%
                    Hamiltonian matrix filling:  47.97%
                  NGWF diagonal matrix filling:   0.16%
                             KS matrix filling: 100.00% 
                           KSKS matrix filling: 100.00% 
================================================================================

Sparse matrix initialisation ... done
NGWF initialisation ...... done
============ Calculation of NGWF S^-1 using Hotelling algorithm ================ 
         Iteration  |  Frobenius norm and Maximum abs value    (of I-S*S_n^-1)   
               1       0.49253185E+02     0.97847645E+00
               2       0.48157590E+02     0.95871398E+00
               3       0.46474485E+02     0.92350419E+00
               4       0.44231561E+02     0.86561326E+00
               5       0.41497810E+02     0.77914211E+00
               6       0.38240771E+02     0.69252231E+00
               7       0.34700132E+02     0.64168737E+00
               8       0.31275260E+02     0.59923648E+00
               9       0.27759598E+02     0.55688310E+00
              10       0.23443919E+02     0.49423389E+00
              11       0.17809029E+02     0.39303985E+00
              12       0.11095277E+02     0.25301857E+00
              13       0.48715507E+01     0.11040718E+00
              14       0.11165564E+01     0.23634052E-01
              15       0.69356869E-01     0.13063504E-02
              16       0.32650354E-03     0.49905886E-05
              17       0.10523288E-07     0.10362711E-09
              18       0.82817400E-13     0.54400928E-14
================================================================================
Calculating core density ...
================================= Core Density =================================
               Core den box size:   21 x  21 x  21
================================================================================
 ... done
Up spin density kernel initialisation ...... done

Writing density kernel to file "3.1661816_GO_manual_4x64graphite.dkn" ... done

>>> Optimising kernel for current NGWFs:

--------------------------- Ensemble-DFT optimisation --------------------------
Running ScaLAPACK on   40 processor(s).

--------------------------------------------------------------------------------
  Iter                              Commutator    Free_energy(A=E-TS)     DeltaA
#    0                          0.000052105143   -3682.90832709415872  -3.68E+03

Step                       =       0.381966011250
Energy                     =   -3682.908277732613
Entropy (-TS)              =      -0.000049361342
Free energy (A=E-TS)       =   -3682.908327094159
Est. 0K Energy 0.5*(E+A)   =   -3682.908302413386
Residual Non-orthogonality =       0.000000000000
Residual N_electrons       =      -0.000000000203

Spin          Integrated_Ne            Fermi_level     Delta_Fermi_level
   1      2560.000000000861         0.235891582285              2.36E-01

                           Spin 1          
     Orb      H-eigenvalues     Occupancies
       1 |    -0.4813743886    1.0000000000 | 
                          ------
    1276 |     0.2037713481    0.9999606419 | 
    1277 |     0.2043654750    0.9999525202 | 
    1278 |     0.2043802534    0.9999522981 | 
    1279 |     0.2047998270    0.9999455406 | 
    1280 |     0.2053960383    0.9999342596 | 
                 - Gap at zero temperature -
    1281 |     0.2686911140    0.0000317599 | 
    1282 |     0.2686965250    0.0000317057 | 
    1283 |     0.2687788018    0.0000308926 | 
    1284 |     0.2689268123    0.0000294820 | 
    1285 |     0.2689323375    0.0000294306 | 
                          ------
    2560 |     1.0560290658    0.0000000000 | 

                       |  Abs_value |  Threshold | Converged
     Delta_Free_energy |   3.68E+03 |   1.00E-06 |        No
     Delta_Energy      |   3.68E+03 |   1.00E-04 |        No
     Delta_Entropy     |   4.94E-05 |   1.00E-04 |       Yes
     Commutator        |   5.21E-05 |   1.00E-05 |        No
     Delta_Fermi_level |   2.36E-01 |   1.00E-03 |        No

  Line search of the free energy minimum:
  Step_type        Step             Free_energy   Predicted_free_energy
.   Initial    0.000000    -3682.90832709415872
.    Trial1    0.381966    -3682.91100293665022
.    Trial2    0.618034    -3682.91089302081855
. Quadratic    0.480741    -3682.91111933770571    -3682.91112087843794

--------------------------------------------------------------------------------
  Iter                              Commutator    Free_energy(A=E-TS)     DeltaA
#    1                          0.000026223092   -3682.91111933770571  -2.79E-03

Step                       =       0.480741455797
Energy                     =   -3682.911072719673
Entropy (-TS)              =      -0.000046618246
Free energy (A=E-TS)       =   -3682.911119337706
Est. 0K Energy 0.5*(E+A)   =   -3682.911096028689
Residual Non-orthogonality =       0.000000000000
Residual N_electrons       =       0.000000000213

Spin          Integrated_Ne            Fermi_level     Delta_Fermi_level
   1      2559.999999999111         0.239543304788              3.65E-03

                           Spin 1          
     Orb      H-eigenvalues     Occupancies
       1 |    -0.4791316419    1.0000000000 | 
                          ------
    1276 |     0.2073104139    0.9999620173 | 
    1277 |     0.2077633682    0.9999561771 | 
    1278 |     0.2077830041    0.9999559046 | 
    1279 |     0.2083566378    0.9999471485 | 
    1280 |     0.2088167739    0.9999388837 | 
                 - Gap at zero temperature -
    1281 |     0.2725020892    0.0000302023 | 
    1282 |     0.2725407322    0.0000298360 | 
    1283 |     0.2726336671    0.0000289732 | 
    1284 |     0.2728681149    0.0000269058 | 
    1285 |     0.2728891070    0.0000267280 | 
                          ------
    2560 |     1.0617683688    0.0000000000 | 

                       |  Abs_value |  Threshold | Converged
     Delta_Free_energy |   2.79E-03 |   1.00E-06 |        No
     Delta_Energy      |   2.79E-03 |   1.00E-04 |        No
     Delta_Entropy     |   2.74E-06 |   1.00E-04 |       Yes
     Commutator        |   2.62E-05 |   1.00E-05 |        No
     Delta_Fermi_level |   3.65E-03 |   1.00E-03 |        No

  Line search of the free energy minimum:
  Step_type        Step             Free_energy   Predicted_free_energy
.   Initial    0.000000    -3682.91111933770571
.    Trial1    0.480741    -3682.91147072652848
.    Trial2    0.679081    -3682.91068286718973
. Quadratic    0.293139    -3682.91171649825628    -3682.91171447988881

--------------------------------------------------------------------------------
  Iter                              Commutator    Free_energy(A=E-TS)     DeltaA
#    2                          0.000017192181   -3682.91171649825628  -5.97E-04

Step                       =       0.293138994284
Energy                     =   -3682.911670877367
Entropy (-TS)              =      -0.000045620869
Free energy (A=E-TS)       =   -3682.911716498256
Est. 0K Energy 0.5*(E+A)   =   -3682.911693687812
Residual Non-orthogonality =       0.000000000000
Residual N_electrons       =      -0.000000000020

Spin          Integrated_Ne            Fermi_level     Delta_Fermi_level
   1      2560.000000000085         0.240649780860              1.11E-03

                           Spin 1          
     Orb      H-eigenvalues     Occupancies
       1 |    -0.4784328229    1.0000000000 | 
                          ------
    1276 |     0.2083244625    0.9999631098 | 
    1277 |     0.2088140008    0.9999569431 | 
    1278 |     0.2088395428    0.9999565944 | 
    1279 |     0.2093591937    0.9999488546 | 
    1280 |     0.2098615456    0.9999400630 | 
                 - Gap at zero temperature -
    1281 |     0.2736863034    0.0000294700 | 
    1282 |     0.2737301594    0.0000290647 | 
    1283 |     0.2738175219    0.0000282739 | 
    1284 |     0.2740128998    0.0000265823 | 
    1285 |     0.2740568966    0.0000262155 | 
                          ------
    2560 |     1.0635681774    0.0000000000 | 

                       |  Abs_value |  Threshold | Converged
     Delta_Free_energy |   5.97E-04 |   1.00E-06 |        No
     Delta_Energy      |   5.98E-04 |   1.00E-04 |        No
     Delta_Entropy     |   9.97E-07 |   1.00E-04 |       Yes
     Commutator        |   1.72E-05 |   1.00E-05 |        No
     Delta_Fermi_level |   1.11E-03 |   1.00E-03 |        No

  Line search of the free energy minimum:
  Step_type        Step             Free_energy   Predicted_free_energy
.   Initial    0.000000    -3682.91171649825628
.    Trial1    0.293139    -3682.91194315250095
.    Trial2    0.563136    -3682.91166670239818
. Quadratic    0.267713    -3682.91194527505149    -3682.91194521550551

--------------------------------------------------------------------------------
  Iter                              Commutator    Free_energy(A=E-TS)     DeltaA
#    3                          0.000012165238   -3682.91194527505149  -2.29E-04

Step                       =       0.267713419429
Energy                     =   -3682.911900263925
Entropy (-TS)              =      -0.000045010948
Free energy (A=E-TS)       =   -3682.911945275051
Est. 0K Energy 0.5*(E+A)   =   -3682.911922769488
Residual Non-orthogonality =       0.000000000000
Residual N_electrons       =      -0.000000000179

Spin          Integrated_Ne            Fermi_level     Delta_Fermi_level
   1      2560.000000000741         0.241371853848              7.22E-04

                           Spin 1          
     Orb      H-eigenvalues     Occupancies
       1 |    -0.4779752468    1.0000000000 | 
                          ------
    1276 |     0.2089997983    0.9999636503 | 
    1277 |     0.2094923146    0.9999575339 | 
    1278 |     0.2095210969    0.9999571462 | 
    1279 |     0.2100306398    0.9999496657 | 
    1280 |     0.2105391560    0.9999408986 | 
                 - Gap at zero temperature -
    1281 |     0.2744528091    0.0000290594 | 
    1282 |     0.2744994100    0.0000286349 | 
    1283 |     0.2745857384    0.0000278649 | 
    1284 |     0.2747755030    0.0000262442 | 
    1285 |     0.2748222471    0.0000258597 | 
                          ------
    2560 |     1.0647448245    0.0000000000 | 

                       |  Abs_value |  Threshold | Converged
     Delta_Free_energy |   2.29E-04 |   1.00E-06 |        No
     Delta_Energy      |   2.29E-04 |   1.00E-04 |        No
     Delta_Entropy     |   6.10E-07 |   1.00E-04 |       Yes
     Commutator        |   1.22E-05 |   1.00E-05 |        No
     Delta_Fermi_level |   7.22E-04 |   1.00E-03 |       Yes

  Line search of the free energy minimum:
  Step_type        Step             Free_energy   Predicted_free_energy
.   Initial    0.000000    -3682.91194527505149
.    Trial1    0.267713    -3682.91205738132930
.    Trial2    0.547422    -3682.91194646610711
. Quadratic    0.274441    -3682.91205744392391    -3682.91205744874605

--------------------------------------------------------------------------------
  Iter                              Commutator    Free_energy(A=E-TS)     DeltaA
#    4                          0.000009011110   -3682.91205744392391  -1.12E-04

Step                       =       0.274441447953
Energy                     =   -3682.912012880264
Entropy (-TS)              =      -0.000044564213
Free energy (A=E-TS)       =   -3682.912057443924
Est. 0K Energy 0.5*(E+A)   =   -3682.912035162094
Residual Non-orthogonality =       0.000000000000
Residual N_electrons       =       0.000000000553

Spin          Integrated_Ne            Fermi_level     Delta_Fermi_level
   1      2559.999999997713         0.241914181461              5.42E-04

                           Spin 1          
[...]
 C   275 -- C   555       -0.09      5.37000
 C   274 -- C   554       -0.09      5.37000
 C   273 -- C   553       -0.09      5.37000
 C   272 -- C   552       -0.09      5.37000
 C   271 -- C   551       -0.09      5.37000
 C   270 -- C   550       -0.09      5.37000
 C   269 -- C   549       -0.09      5.37000
 C   268 -- C   548       -0.09      5.37000
 C   267 -- C   547       -0.09      5.37000
 C   266 -- C   546       -0.09      5.37000
 C   130 -- C   465       -0.09      5.37000
 C   129 -- C   464       -0.09      5.37000
 C   128 -- C   463       -0.09      5.37000
 C   127 -- C   462       -0.09      5.37000
 C   126 -- C   461       -0.09      5.37000
 C   240 -- C   525       -0.09      5.37000
 C   239 -- C   524       -0.09      5.37000
 C   238 -- C   523       -0.09      5.37000
 C   237 -- C   522       -0.09      5.37000
 C   236 -- C   521       -0.09      5.37000
 C    23 -- C   478       -0.09      5.37202
 C    49 -- C   469       -0.09      5.37202
 C    48 -- C   468       -0.09      5.37202
 C    47 -- C   467       -0.09      5.37202
 C    22 -- C   477       -0.09      5.37202
 C    46 -- C   466       -0.09      5.37202
 C    21 -- C   476       -0.09      5.37202
 C    25 -- C   480       -0.09      5.37202
 C    24 -- C   479       -0.09      5.37202
 C    50 -- C   470       -0.09      5.37202
 C    24 -- C   449       -0.09      5.37202
 C     6 -- C   416       -0.09      5.37202
 C    23 -- C   448       -0.09      5.37202
 C    22 -- C   447       -0.09      5.37202
 C    10 -- C   470       -0.09      5.37202
 C     5 -- C   450       -0.09      5.37202
 C    21 -- C   446       -0.09      5.37202
 C    10 -- C   420       -0.09      5.37202
 C     9 -- C   469       -0.09      5.37202
 C     9 -- C   419       -0.09      5.37202
 C     8 -- C   468       -0.09      5.37202
 C     4 -- C   449       -0.09      5.37202
 C     8 -- C   418       -0.09      5.37202
 C   285 -- C   580       -0.09      5.37202
 C   284 -- C   579       -0.09      5.37202
 C   283 -- C   578       -0.09      5.37202
 C   282 -- C   577       -0.09      5.37202
 C   281 -- C   576       -0.09      5.37202
 C     2 -- C   447       -0.09      5.37202
 C     7 -- C   467       -0.09      5.37202
 C   260 -- C   605       -0.09      5.37202
 C   259 -- C   604       -0.09      5.37202
 C   258 -- C   603       -0.09      5.37202
 C   257 -- C   602       -0.09      5.37202
 C   256 -- C   601       -0.09      5.37202
 C     7 -- C   417       -0.09      5.37202
 C     1 -- C   446       -0.09      5.37202
 C     6 -- C   466       -0.09      5.37202
 C    25 -- C   450       -0.09      5.37202
 C     3 -- C   448       -0.09      5.37202
 C   219 -- C   569       -0.09      5.37202
 C   218 -- C   568       -0.09      5.37202
 C   217 -- C   567       -0.09      5.37202
 C   216 -- C   566       -0.09      5.37202
 C   250 -- C   540       -0.09      5.37202
 C   249 -- C   539       -0.09      5.37202
 C   248 -- C   538       -0.09      5.37202
 C   247 -- C   537       -0.09      5.37202
 C   246 -- C   536       -0.09      5.37202
 C   220 -- C   570       -0.09      5.37202
 C   205 -- C   550       -0.09      5.37202
 C   204 -- C   549       -0.09      5.37202
 C   203 -- C   548       -0.09      5.37202
 C   202 -- C   547       -0.09      5.37202
 C   201 -- C   546       -0.09      5.37202
 C    95 -- C   365       -0.09      5.37202
 C    94 -- C   364       -0.09      5.37202
 C    93 -- C   363       -0.09      5.37202
 C    92 -- C   362       -0.09      5.37202
 C    91 -- C   361       -0.09      5.37202
 C    65 -- C   395       -0.09      5.37202
 C    64 -- C   394       -0.09      5.37202
 C    63 -- C   393       -0.09      5.37202
 C    30 -- C   355       -0.09      5.37202
 C    62 -- C   392       -0.09      5.37202
 C    61 -- C   391       -0.09      5.37202
 C    29 -- C   354       -0.09      5.37202
 C   260 -- C   550       -0.09      5.37202
 C   259 -- C   549       -0.09      5.37202
 C    28 -- C   353       -0.09      5.37202
 C   258 -- C   548       -0.09      5.37202
 C   257 -- C   547       -0.09      5.37202
 C   256 -- C   546       -0.09      5.37202
 C    27 -- C   352       -0.09      5.37202
 C    26 -- C   351       -0.09      5.37202
 C    55 -- C   335       -0.09      5.37202
 C    54 -- C   334       -0.09      5.37202
 C    53 -- C   333       -0.09      5.37202
 C   230 -- C   580       -0.09      5.37202
 C   230 -- C   525       -0.09      5.37202
 C   229 -- C   579       -0.09      5.37202
 C   229 -- C   524       -0.09      5.37202
 C   228 -- C   578       -0.09      5.37202
 C    52 -- C   332       -0.09      5.37202
 C   228 -- C   523       -0.09      5.37202
 C   227 -- C   577       -0.09      5.37202
 C   227 -- C   522       -0.09      5.37202
 C   226 -- C   576       -0.09      5.37202
 C   226 -- C   521       -0.09      5.37202
 C    51 -- C   331       -0.09      5.37202
 C   220 -- C   515       -0.09      5.37202
 C   219 -- C   514       -0.09      5.37202
 C   218 -- C   513       -0.09      5.37202
 C   217 -- C   512       -0.09      5.37202
 C   216 -- C   511       -0.09      5.37202
 C   195 -- C   540       -0.09      5.37202
 C   195 -- C   500       -0.09      5.37202
 C   194 -- C   539       -0.09      5.37202
 C   194 -- C   499       -0.09      5.37202
 C   193 -- C   538       -0.09      5.37202
 C   193 -- C   498       -0.09      5.37202
 C   192 -- C   537       -0.09      5.37202
 C   192 -- C   497       -0.09      5.37202
 C   191 -- C   536       -0.09      5.37202
 C   191 -- C   496       -0.09      5.37202
 C   180 -- C   515       -0.09      5.37202
 C   179 -- C   514       -0.09      5.37202
 C   178 -- C   513       -0.09      5.37202
 C   177 -- C   512       -0.09      5.37202
 C   176 -- C   511       -0.09      5.37202
 C   150 -- C   440       -0.09      5.37202
 C   149 -- C   439       -0.09      5.37202
 C   148 -- C   438       -0.09      5.37202
 C   147 -- C   437       -0.09      5.37202
 C   146 -- C   436       -0.09      5.37202
 C   135 -- C   460       -0.09      5.37202
 C   134 -- C   459       -0.09      5.37202
 C   133 -- C   458       -0.09      5.37202
 C   132 -- C   457       -0.09      5.37202
 C   131 -- C   456       -0.09      5.37202
 C    11 -- C   331       -0.09      5.37202
 C    95 -- C   425       -0.09      5.37202
 C    94 -- C   424       -0.09      5.37202
 C    93 -- C   423       -0.09      5.37202
 C    92 -- C   422       -0.09      5.37202
 C    91 -- C   421       -0.09      5.37202
 C    85 -- C   355       -0.09      5.37202
 C    40 -- C   365       -0.09      5.37202
 C    84 -- C   354       -0.09      5.37202
 C    83 -- C   353       -0.09      5.37202
 C    82 -- C   352       -0.09      5.37202
 C    39 -- C   364       -0.09      5.37202
 C    81 -- C   351       -0.09      5.37202
 C    38 -- C   363       -0.09      5.37202
 C    37 -- C   362       -0.09      5.37202
 C    36 -- C   361       -0.09      5.37202
 C    15 -- C   335       -0.09      5.37202
 C    65 -- C   345       -0.09      5.37202
 C    64 -- C   344       -0.09      5.37202
 C    63 -- C   343       -0.09      5.37202
 C    30 -- C   325       -0.09      5.37202
 C    62 -- C   342       -0.09      5.37202
 C    14 -- C   334       -0.09      5.37202
 C    61 -- C   341       -0.09      5.37202
 C    29 -- C   324       -0.09      5.37202
 C    28 -- C   323       -0.09      5.37202
 C    13 -- C   333       -0.09      5.37202
 C    27 -- C   322       -0.09      5.37202
 C   120 -- C   395       -0.09      5.37202
 C    55 -- C   385       -0.09      5.37202
 C   119 -- C   394       -0.09      5.37202
 C   118 -- C   393       -0.09      5.37202
 C   117 -- C   392       -0.09      5.37202
 C    54 -- C   384       -0.09      5.37202
 C    26 -- C   321       -0.09      5.37202
 C   116 -- C   391       -0.09      5.37202
 C    53 -- C   383       -0.09      5.37202
 C    12 -- C   332       -0.09      5.37202
 C    52 -- C   382       -0.09      5.37202
 C    51 -- C   381       -0.09      5.37202
 C   106 -- C   436       -0.09      5.37202
 C   106 -- C   376       -0.09      5.37202
 C    80 -- C   410       -0.09      5.37202
 C    79 -- C   409       -0.09      5.37202
 C    78 -- C   408       -0.09      5.37202
 C    77 -- C   407       -0.09      5.37202
 C    76 -- C   406       -0.09      5.37202
 C   135 -- C   410       -0.09      5.37202
 C   134 -- C   409       -0.09      5.37202
 C   133 -- C   408       -0.09      5.37202
 C   132 -- C   407       -0.09      5.37202
 C   131 -- C   406       -0.09      5.37202
 C   110 -- C   440       -0.09      5.37202
 C   110 -- C   380       -0.09      5.37202
 C   109 -- C   439       -0.09      5.37202
 C   109 -- C   379       -0.09      5.37202
 C   108 -- C   438       -0.09      5.37202
 C   108 -- C   378       -0.09      5.37202
 C   107 -- C   437       -0.09      5.37202
 C   107 -- C   377       -0.09      5.37202
 C   215 -- C   635       -0.09      5.38000
 C   214 -- C   634       -0.09      5.38000
 C   213 -- C   633       -0.09      5.38000
 C   212 -- C   632       -0.09      5.38000
 C   211 -- C   631       -0.09      5.38000
 C   190 -- C   620       -0.09      5.38000
 C   189 -- C   619       -0.09      5.38000
 C   188 -- C   618       -0.09      5.38000
 C   187 -- C   617       -0.09      5.38000
 C   186 -- C   616       -0.09      5.38000
 C   175 -- C   595       -0.09      5.38000
 C   174 -- C   594       -0.09      5.38000
 C   173 -- C   593       -0.09      5.38000
 C   172 -- C   592       -0.09      5.38000
 C   171 -- C   591       -0.09      5.38000
 C   245 -- C   640       -0.09      5.38000
 C   244 -- C   639       -0.09      5.38000
 C   243 -- C   638       -0.09      5.38000
 C   242 -- C   637       -0.09      5.38000
 C   241 -- C   636       -0.09      5.38000
==================================================


=================== Orbital energy and occupancy information ===================

      Total number of orbitals:    2560
        Occupancy sum (kernel):    1280.000000001
   Occupancy sum (eigenvalues):    1280.000000001
                 HOMO-LUMO gap:       0.000035515 Eh
                 Mid-gap level:       0.315683800 Eh

                        Orbital | Energy (Eh) | Occupancy
                            1    -0.440021280   1.0000000
                        .......   ...........   .........
                         1272     0.248651841   0.9999859
                         1273     0.249028974   0.9999842
                         1274     0.249119167   0.9999837
                         1275     0.252969405   0.9999450
                         1276     0.252976263   0.9999449
                         1277     0.253404174   0.9999369
                         1278     0.253411194   0.9999368
                         1279     0.253419200   0.9999366
                         1280     0.253834564   0.9999277
                         1281     0.315666042   0.0000457
                        ....... -- gap at 0K -- .........
                         1282     0.315701557   0.0000452
                         1283     0.315929551   0.0000421
                         1284     0.315965492   0.0000416
                         1285     0.316778613   0.0000323
                         1286     0.316791820   0.0000322
                         1287     0.317061187   0.0000296
                         1288     0.317074238   0.0000294
                         1289     0.317530677   0.0000255
                         1290     0.317820398   0.0000233
                         1291     0.318159993   0.0000207
                        .......   ...........   .........
                         2560     1.163047236   0.0000000

================================================================================

===================== Writing canonical molecular orbitals =====================
| Orbital  Energy (eV)  Norm     |
| HOMO      8.58971008  1.000000 | Writing "3.1661816_GO_manual_4x64graphite_HOMO.cube" ... done
Writing "3.1661816_GO_manual_4x64graphite_HOMO.dx" ... done
| LUMO      8.59067650  1.000000 | Writing "3.1661816_GO_manual_4x64graphite_LUMO.cube" ... done
Writing "3.1661816_GO_manual_4x64graphite_LUMO.dx" ... done
================================================================================
 
===================== Density of States (DOS) calculation ======================
Writing "3.1661816_GO_manual_4x64graphite_DOS.txt" ...  done
================================================================================
 
Writing bands to file "3.1661816_GO_manual_4x64graphite.val_bands" ... done
 
================ Projected Density of States (pDOS) calculation ================
 
Constructing AM resolved functions  ...... done
Writing NGWF plot files in formats: CUBE DX ...  done
 
Performing overlap integrals ...  done
 
Computing pDOS weights ...  done
 
All bands spilling parameter =   3.94 %
Occupancy-weighted spilling parameter =   0.87 %
 
 => Outputting data for OptaDOS <=
 
Writing pDOS weights to file "3.1661816_GO_manual_4x64graphite.val_pdos_bin" ... done
 
Writing band gradients to file "3.1661816_GO_manual_4x64graphite.val_dome_bin" ... done
 
Writing Castep output cell file to "3.1661816_GO_manual_4x64graphite-out.cell" ... done
 
 => Computing Gaussian smeared pDOS <= 
Writing "3.1661816_GO_manual_4x64graphite_PDOS.txt" ...  done
 
 => Computing Occupancy-weighted Gaussian smeared pDOS <= 
Writing "3.1661816_GO_manual_4x64graphite_occ_PDOS.txt" ...  done
  => Band centres: 
 S band centre of group 1:  -15.538649 eV
 P band centre of group 1:   -8.440594 eV
  Band centres done. <=
  => Integrated number of electrons in each AM band: 
 S num electrons of group 1:  575.003366
 P num electrons of group 1: 1962.633684
  Integrated number of electrons done. <=
================================================================================

------------------------------ TIMING INFORMATION ------------------------------
AVERAGE TIME:    4594.102s on     40 node(s)                                    
TOTAL TIME:      4594.102s on     40 node(s)                                    
================= AVERAGE TIMINGS FROM ALL NODES (CUMULATIVE) ==================
|| TAG                                    #calls    cpu time   %total  Gflops ||
|| work_imbalance                       :     1        0.00s   0.000%  ------ ||
|| paw_tcore_density                    :     1        0.01s   0.000%  ------ ||
|| paw_tcore_hartree_on_grid            :     1        0.01s   0.000%  ------ ||
|| paw_sphere_density_on_grid           :     1        0.01s   0.000%  ------ ||
|| sparse_set_to_garbage                :   183        0.03s   0.001%  ------ ||
|| pseudo_make_structure_factor         :     1        0.05s   0.001%  ------ ||
|| paw_dij_hartree                      :   406        0.05s   0.001%  ------ ||
|| basis_extract_function_from_box      :  2048        0.09s   0.002%  ------ ||
|| paw_species_calc_proj_prec_mat       :     1        0.12s   0.003%  ------ ||
|| paw_dataset_init                     :     1        0.15s   0.003%  ------ ||
|| density_init_guess_real              :     1        0.21s   0.005%  ------ ||
|| ngwfs_initialise_from_radial         :     2        0.67s   0.015%  ------ ||
|| sparse_init                          :     1        0.99s   0.021%  ------ ||
|| dense_normal_eigensolve              :     1        1.02s   0.022%  ------ ||
|| restart_kernel_write                 :    17        1.12s   0.024%  ------ ||
|| hartree_on_grid                      :   304        1.63s   0.035%  ------ ||
|| ewald_calculate_energy               :     1        2.42s   0.053%  ------ ||
|| projectors_init_fftbox_recip         :   161        3.18s   0.069%  ------ ||
|| fourier_apply_box_pair               :  3040        5.03s   0.109% 561.101 ||
|| basis_copy_function_to_box           : 28736        6.24s   0.136%  ------ ||
|| sw_init                              :     1        6.73s   0.147%  ------ ||
|| augmentation_screen_dij              :   311        6.74s   0.147%  ------ ||
|| sparse_embed_hotelling_invert_embed  :    31        9.15s   0.199%  ------ ||
|| ngwf_gradient_coeffs                 :    16       13.14s   0.286%  ------ ||
|| cell_grid_extract_box_real           : 12220       17.88s   0.389%  ------ ||
|| sparse_trace                         :  3690       21.83s   0.475%  ------ ||
|| fourier_apply_cell_backward          :  9395       22.03s   0.479%  47.082 ||
|| fourier_apply_cell_forward           :  8788       23.03s   0.501%  42.129 ||
|| cell_grid_deposit_box_real           : 39088       28.84s   0.628%  ------ ||
|| paw_dij_xc                           :   406       38.32s   0.834%  ------ ||
|| aug_nonlocal_mat                     :   390       52.26s   1.138%  ------ ||
|| eigenstates_pdos                     :     1       53.79s   1.171%  ------ ||
|| eigenstates_calculate                :     1       57.86s   1.259%  ------ ||
|| augmentation_density_on_grid         :   304       59.37s   1.292%  ------ ||
|| density_fftbox_deposit_to_cell       : 19456       59.99s   1.306%  ------ ||
|| function_ops_brappd_ketppd           :    64       67.60s   1.471%  ------ ||
|| hamiltonian_energy_components        :     4       69.00s   1.502%  ------ ||
|| projectors_func_ovlp_box             :    32       78.99s   1.719%  ------ ||
|| nlxc_vdw_energy                      :   606       87.98s   1.915%  ------ ||
|| xc_energy_potential                  :   303       93.59s   2.037%  ------ ||
|| properties_calculate                 :     1      102.64s   2.234%  ------ ||
|| integrals_kinetic                    :    31      116.90s   2.545%  ------ ||
|| dense_eigensolve                     :   268      127.51s   2.776%  ------ ||
|| restart_ngwfs_tightbox_output        :    15      148.72s   3.237%  ------ ||
|| potential_apply_to_ngwf_batch        :   388      156.03s   3.396%  ------ ||
|| sparse_product                       :  3673      165.85s   3.610%  ------ ||
|| basis_dot_function_with_box          : 9.643M     266.32s   5.797%  ------ ||
|| fourier_apply_box                    : 90080      280.72s   6.110% 980.317 ||
|| edft_diag_ngwf_ham                   :   267      291.48s   6.345%  ------ ||
|| projectors_gradient_batch            :    64      304.38s   6.625%  ------ ||
|| integrals_locpot_mat_els_batch       :   388      370.45s   8.063%  ------ ||
|| density_fftbox_interpolate_multiply  : 19456      377.64s   8.220%  ------ ||
|| projectors_grad_precond_batch        :    64      442.79s   9.638%  ------ ||
|| density_batch_interp_deposit         :  1216      490.56s  10.678%  ------ ||
|| integrals_locpot_dbl_grid            :    97      528.60s  11.506%  ------ ||
|| edft_apply_smearing_operator         :   267      574.52s  12.506%  ------ ||
|| basis_add_function_to_box            : 27.04M     715.06s  15.565%  ------ ||
|| ngwf_gradient_build_batch            :    64      795.87s  17.324%  ------ ||
|| density_batch_row_sums               :  1216     1043.15s  22.706%  ------ ||
|| ngwf_gradient_batch                  :    64     1055.49s  22.975%  ------ ||
|| ngwf_gradient_lnv                    :    16     1087.17s  23.664%  ------ ||
|| density_on_dbl_grid                  :   304     1548.93s  33.716%  ------ ||
|| hamiltonian_lhxc_calculate           :   298     1674.39s  36.446%  ------ ||
|| edft_calculate                       :    16     2773.66s  60.374%  ------ ||
|| ngwf_cg_optimise                     :     1     4465.62s  97.203%  ------ ||
|| total_time                           :     1     4594.10s 100.000%  ------ ||
================================================================================
Overhead of generating timer report: 
- 0 ms averaging over threads,
- 5 ms ensuring consistency across MPI ranks,
- 0 ms printing in order.

Job completed: 26-02-2020 04:30 (-0000)

