 +---------------------------------------------------------------+
 |                                                               |
 |        ####### #     # ####### ####### ####### ######         |
 |        #     # ##    # #          #    #       #     #        |
 |        #     # # #   # #          #    #       #     #        |
 |        #     # #  #  # #####      #    #####   ######         |
 |        #     # #   # # #          #    #       #              |
 |        #     # #    ## #          #    #       #              |
 |        ####### #     # #######    #    ####### #              |
 |                                                               |
 |        Linear-Scaling Ab Initio Total Energy Program          |
 |                                                               |
 |          Release for academic collaborators of ODG            |
 |                                             Version 5.3.2.12  |
 |                                                               |
 +---------------------------------------------------------------+
 |                                                               |
 |  Authors:                                                     |
 |  Jacek Dziedzic, Peter D. Haynes, Nicholas D. M. Hine,        |
 |  Arash. A. Mostofi, Mike C. Payne and Chris-Kriton Skylaris   |
 |                                                               |
 |  Contributors:                                                |
 |  J. Aarons, L. Andrinopoulos, P. W. Avraam, R. A. Bell,       |
 |  A. Bhandari, G. A. Bramley, R. J. Charlton, S. J. Clark,     |
 |  R. J. Clements, G. C. Constantinescu, F. Corsetti,           |
 |  N. Corsini, O. Dieguez, S. M. M. Dubois, K. K. B. Duff,      |
 |  J. M. Escartin, A. Greco, H. Helal, Q. O. Hill, L. P. Lee,   |
 |  J.-H. Li, E. B. Linscott, G. Moynihan, D. D. O`Regan,        |
 |  O. K. Okan, M. J. S. Phipps, C. J. Pickard,                  |
 |  J. C. A. Prentice, M. I. J. Probert, L. E. Ratcliff,         |
 |  M. Robinson, A. Ruiz Serrano, J. S. Spencer, E. W. Tait,     |
 |  G. Teobaldi, D. Turban, V. Vitale, K. A. Wilkinson,          |
 |  C. Weber, J. C. Womack, N. Yeung and T. J. Zuehlsdorff       |
 |                                                               |
 |                                   Copyright (c) 2004-2020     |
 |                                                               |
 |  Please cite:                                                 |
 |  "Introducing ONETEP: Linear-scaling density functional       |
 |   simulations on parallel computers".                         |
 |   C.-K. Skylaris, P. D. Haynes, A. A. Mostofi, M. C. Payne.   |
 |   J. Chem. Phys. 122 084119 (2005).                           |
 |                                                               |
 |          in all publications arising from your use of ONETEP. |
 |                                                               |
 +---------------------------------------------------------------+
 |                                                               |
 |   ONETEP is based on developments described in the following  |
 |   publications:                                               |
 |                                                               |
 |  "Nonorthogonal generalized Wannier function pseudopotential  |
 |   plane-wave method".                                         |
 |   C.-K. Skylaris, A. A. Mostofi, P. D. Haynes, O. Dieguez,    |
 |   M. C. Payne.                                                |
 |   Phys. Rev. B 66 035119 (2002).                              |
 |                                                               |
 |  "Preconditioned iterative minimization for linear-scaling    |
 |   electronic structure calculations".                         |
 |   A. A. Mostofi, P. D. Haynes, C.-K. Skylaris, M. C. Payne.   |
 |   J. Chem. Phys. 119(17), pp.8842-8848 (2003).                |
 |                                                               |
 |  "Total-energy calculations on a real space grid with         |
 |   localized functions and a plane-wave basis".                |
 |   A. A. Mostofi, C.-K. Skylaris, P. D. Haynes, M. C. Payne.   |
 |   Comput. Phys. Commun. 147, pp.788-802 (2002).               |
 |                                                               |
 |  "Accurate kinetic energy evaluation in electronic structure  |
 |   calculations with localized functions on real space grids"  |
 |   C.-K. Skylaris, A. A. Mostofi, P. D. Haynes, C. J. Pickard, |
 |   M. C. Payne.                                                |
 |   Comput. Phys. Commun. 140, pp.315-322 (2001).               |
 |                                                               |
 |  "Accurate ionic forces and geometry optimization in linear-  |
 |   scaling density-functional theory with local orbitals"      |
 |   N. D. M. Hine, M. Robinson, P. D. Haynes, C.-K. Skylaris,   |
 |   M. C. Payne, and A. A. Mostofi.                             |
 |   Phys. Rev. B 83 195102 (2011).                              |
 |                                                               |
 +---------------------------------------------------------------+

Job started: 26-02-2020 04:04 (-0000)
 
Reading parameters from file "3.2735064_GO_manual_4x64graphite.dat" ...

WARNING: "cutoff_energy" not specified, but "psinc_spacing" specified.
         Using the latter to set the KE cutoff energy to  732.32021eV,
         thus *overriding* the default.

... done

If your calculation crashes here, before "Checking processes and threads..."
is displayed, then your stack size is insufficient.
If so, use "ulimit -s unlimited" at runtime.
You can disable this check with "check_stack_size F".

Checking processes and threads...
   Determining the default number of threads...
      No default threads set at compilation time: defaulting to 1.
      OpenMP library call suggests 4 threads.
      Hybrid MPI-OpenMP compilation detected.
      Number of MPI processes > 1.
      OMP_NUM_THREADS environment variable present and
      its value matches the one obtained from the OpenMP library call.
      Using this value as default.
      Default threads: 4
      Default applies to threads_max and threads_num_fftboxes.
      Settings in the input file override this default.
   ... done

   Running with 40 MPI processes.
   There are 10 MPI processes running on the same node as the root process.
   Each MPI process is using: 
               1 threads for simulation cell FFTs.
               1 threads for parallel FFT box operations.
               4 threads for loops over batched FFT box operations.
               4 threads in other parallel regions.
... done

Basic input checks...
Resetting ngwf_cg_rotate to TRUE for EDFT calculations
... done

Reading geometry and species blocks from file "3.2735064_GO_manual_4x64graphite.dat" ...
    
  PSINC grid spacing along a1 set to   0.511215680000a0 from input file.
  PSINC grid spacing along a2 set to   0.531284090000a0 from input file.
  PSINC grid spacing along a3 set to   0.507052730000a0 from input file.
  Number of PPD points along a3 set to 1.  This is 
  the default value, it may have been provided also in the input file.
... done
 Writing xyz coordinates to file "3.2735064_GO_manual_4x64graphite.xyz" ... done


--------------------------------------------------------------------------------
---------------------------------- INPUT FILE ----------------------------------
--------------------------------------------------------------------------------

task : singlepoint                                                              
do_properties : true                                                            
dx_format T                                                                     
edft T                                                                          
output_detail VERBOSE                                                           
write_xyz T                                                                     
xc_functional VDWDF2                                                            
PSINC_SPACING 0.51121568 0.53128409 0.50705273                                  
paw T                                                                           
pdos_max_l = 2                                                                  
dos_smear  0.1 eV                                                               
popn_calculate T                                                                
PDOS_PSEUDOATOMIC T                                                             
PDOS_REDUCE_SWS F                                                               
PDOS_CONSTRUCT_BASIS F                                                          
PDOS_LOWDIN T                                                                   
PDOS_ORTH_ATOM_BLOCKS F                                                         
PDOS_LCAO_OPTIMIZE F                                                            
pdos_optados_output T                                                           
homo_plot 0                                                                     
lumo_plot 0                                                                     
homo_dens_plot -1                                                               
lumo_dens_plot -1                                                               
%BLOCK SPECIES                                                                  
C C 6 4 9.0                                                                     
%ENDBLOCK SPECIES                                                               
%BLOCK SPECIES_POT                                                              
C "~/pp/paw/c_pbe_abinit.paw"                                                   
%ENDBLOCK SPECIES_POT                                                           
%BLOCK SPECIES_ATOMIC_SET                                                       
C "SOLVE conf=2s2 2p2"                                                          
%ENDBLOCK SPECIES_ATOMIC_SET                                                    
%BLOCK LATTICE_CART                                                             
32.21  0.00  0.00                                                               
0.00 18.59  0.00                                                                
0.00  0.00 61.86                                                                
%ENDBLOCK LATTICE_CART                                                          
%BLOCK POSITIONS_ABS                                                            
C  0.00  0.00  3.09                                                             
C  0.00  0.00 15.47                                                             
C  0.00  0.00 27.84                                                             
C  0.00  0.00 40.21                                                             
C  0.00  0.00 52.58                                                             
C  0.00  4.65  3.09                                                             
C  0.00  4.65 15.47                                                             
C  0.00  4.65 27.84                                                             
C  0.00  4.65 40.21                                                             
C  0.00  4.65 52.58                                                             
C  4.03  2.32  3.09                                                             
C  4.03  2.32 15.47                                                             
C  4.03  2.32 27.84                                                             
C  4.03  2.32 40.21                                                             
C  4.03  2.32 52.58                                                             
C  8.05  0.00  3.09                                                             
C  8.05  0.00 15.47                                                             
C  8.05  0.00 27.84                                                             
C  8.05  0.00 40.21                                                             
C  8.05  0.00 52.58                                                             
C  0.00  9.30  3.09                                                             
C  0.00  9.30 15.47                                                             
C  0.00  9.30 27.84                                                             
C  0.00  9.30 40.21                                                             
C  0.00  9.30 52.58                                                             
C  4.03  6.97  3.09                                                             
C  4.03  6.97 15.47                                                             
C  4.03  6.97 27.84                                                             
C  4.03  6.97 40.21                                                             
C  4.03  6.97 52.58                                                             
C  8.05  4.65  3.09                                                             
C  8.05  4.65 15.47                                                             
C  8.05  4.65 27.84                                                             
C  8.05  4.65 40.21                                                             
C  8.05  4.65 52.58                                                             
C 12.08  2.32  3.09                                                             
C 12.08  2.32 15.47                                                             
C 12.08  2.32 27.84                                                             
C 12.08  2.32 40.21                                                             
C 12.08  2.32 52.58                                                             
C 16.10  0.00  3.09                                                             
C 16.10  0.00 15.47                                                             
C 16.10  0.00 27.84                                                             
C 16.10  0.00 40.21                                                             
C 16.10  0.00 52.58                                                             
C  0.00 13.95  3.09                                                             
C  0.00 13.95 15.47                                                             
C  0.00 13.95 27.84                                                             
C  0.00 13.95 40.21                                                             
C  0.00 13.95 52.58                                                             
C  4.03 11.62  3.09                                                             
C  4.03 11.62 15.47                                                             
C  4.03 11.62 27.84                                                             
C  4.03 11.62 40.21                                                             
C  4.03 11.62 52.58                                                             
C  8.05  9.30  3.09                                                             
C  8.05  9.30 15.47                                                             
C  8.05  9.30 27.84                                                             
C  8.05  9.30 40.21                                                             
C  8.05  9.30 52.58                                                             
C 12.08  6.97  3.09                                                             
C 12.08  6.97 15.47                                                             
C 12.08  6.97 27.84                                                             
C 12.08  6.97 40.21                                                             
C 12.08  6.97 52.58                                                             
C 16.10  4.65  3.09                                                             
C 16.10  4.65 15.47                                                             
C 16.10  4.65 27.84                                                             
C 16.10  4.65 40.21                                                             
C 16.10  4.65 52.58                                                             
C 20.13  2.32  3.09                                                             
C 20.13  2.32 15.47                                                             
C 20.13  2.32 27.84                                                             
C 20.13  2.32 40.21                                                             
C 20.13  2.32 52.58                                                             
C 24.16  0.00  3.09                                                             
C 24.16  0.00 15.47                                                             
C 24.16  0.00 27.84                                                             
C 24.16  0.00 40.21                                                             
C 24.16  0.00 52.58                                                             
C  4.03 16.27  3.09                                                             
C  4.03 16.27 15.47                                                             
C  4.03 16.27 27.84                                                             
C  4.03 16.27 40.21                                                             
C  4.03 16.27 52.58                                                             
C  8.05 13.95  3.09                                                             
C  8.05 13.95 15.47                                                             
C  8.05 13.95 27.84                                                             
C  8.05 13.95 40.21                                                             
C  8.05 13.95 52.58                                                             
C 12.08 11.62  3.09                                                             
C 12.08 11.62 15.47                                                             
C 12.08 11.62 27.84                                                             
C 12.08 11.62 40.21                                                             
C 12.08 11.62 52.58                                                             
C 16.10  9.30  3.09                                                             
C 16.10  9.30 15.47                                                             
C 16.10  9.30 27.84                                                             
C 16.10  9.30 40.21                                                             
C 16.10  9.30 52.58                                                             
C 20.13  6.97  3.09                                                             
C 20.13  6.97 15.47                                                             
C 20.13  6.97 27.84                                                             
C 20.13  6.97 40.21                                                             
C 20.13  6.97 52.58                                                             
C 24.16  4.65  3.09                                                             
C 24.16  4.65 15.47                                                             
C 24.16  4.65 27.84                                                             
C 24.16  4.65 40.21                                                             
C 24.16  4.65 52.58                                                             
C 28.18  2.32  3.09                                                             
C 28.18  2.32 15.47                                                             
C 28.18  2.32 27.84                                                             
C 28.18  2.32 40.21                                                             
C 28.18  2.32 52.58                                                             
C 12.08 16.27  3.09                                                             
C 12.08 16.27 15.47                                                             
C 12.08 16.27 27.84                                                             
C 12.08 16.27 40.21                                                             
C 12.08 16.27 52.58                                                             
C 16.10 13.95  3.09                                                             
C 16.10 13.95 15.47                                                             
C 16.10 13.95 27.84                                                             
C 16.10 13.95 40.21                                                             
C 16.10 13.95 52.58                                                             
C 20.13 11.62  3.09                                                             
C 20.13 11.62 15.47                                                             
C 20.13 11.62 27.84                                                             
C 20.13 11.62 40.21                                                             
C 20.13 11.62 52.58                                                             
C 24.16  9.30  3.09                                                             
C 24.16  9.30 15.47                                                             
C 24.16  9.30 27.84                                                             
C 24.16  9.30 40.21                                                             
C 24.16  9.30 52.58                                                             
C 28.18  6.97  3.09                                                             
C 28.18  6.97 15.47                                                             
C 28.18  6.97 27.84                                                             
C 28.18  6.97 40.21                                                             
C 28.18  6.97 52.58                                                             
C 20.13 16.27  3.09                                                             
C 20.13 16.27 15.47                                                             
C 20.13 16.27 27.84                                                             
C 20.13 16.27 40.21                                                             
C 20.13 16.27 52.58                                                             
C 24.16 13.95  3.09                                                             
C 24.16 13.95 15.47                                                             
C 24.16 13.95 27.84                                                             
C 24.16 13.95 40.21                                                             
C 24.16 13.95 52.58                                                             
C 28.18 11.62  3.09                                                             
C 28.18 11.62 15.47                                                             
C 28.18 11.62 27.84                                                             
C 28.18 11.62 40.21                                                             
C 28.18 11.62 52.58                                                             
C 28.18 16.27  3.09                                                             
C 28.18 16.27 15.47                                                             
C 28.18 16.27 27.84                                                             
C 28.18 16.27 40.21                                                             
C 28.18 16.27 52.58                                                             
C  0.00  0.00  9.28                                                             
C  0.00  0.00 21.65                                                             
C  0.00  0.00 34.02                                                             
C  0.00  0.00 46.40                                                             
C  0.00  0.00 58.77                                                             
C  0.00  4.65  9.28                                                             
C  0.00  4.65 21.65                                                             
C  0.00  4.65 34.02                                                             
C  0.00  4.65 46.40                                                             
C  0.00  4.65 58.77                                                             
C  4.03  2.32  9.28                                                             
C  4.03  2.32 21.65                                                             
C  4.03  2.32 34.02                                                             
C  4.03  2.32 46.40                                                             
C  4.03  2.32 58.77                                                             
C  8.05  0.00  9.28                                                             
C  8.05  0.00 21.65                                                             
C  8.05  0.00 34.02                                                             
C  8.05  0.00 46.40                                                             
C  8.05  0.00 58.77                                                             
C  0.00  9.30  9.28                                                             
C  0.00  9.30 21.65                                                             
C  0.00  9.30 34.02                                                             
C  0.00  9.30 46.40                                                             
C  0.00  9.30 58.77                                                             
C  4.03  6.97  9.28                                                             
C  4.03  6.97 21.65                                                             
C  4.03  6.97 34.02                                                             
C  4.03  6.97 46.40                                                             
C  4.03  6.97 58.77                                                             
C  8.05  4.65  9.28                                                             
C  8.05  4.65 21.65                                                             
C  8.05  4.65 34.02                                                             
C  8.05  4.65 46.40                                                             
C  8.05  4.65 58.77                                                             
C 12.08  2.32  9.28                                                             
C 12.08  2.32 21.65                                                             
C 12.08  2.32 34.02                                                             
C 12.08  2.32 46.40                                                             
C 12.08  2.32 58.77                                                             
C 16.10  0.00  9.28                                                             
C 16.10  0.00 21.65                                                             
C 16.10  0.00 34.02                                                             
C 16.10  0.00 46.40                                                             
C 16.10  0.00 58.77                                                             
C  0.00 13.95  9.28                                                             
C  0.00 13.95 21.65                                                             
C  0.00 13.95 34.02                                                             
C  0.00 13.95 46.40                                                             
C  0.00 13.95 58.77                                                             
C  4.03 11.62  9.28                                                             
C  4.03 11.62 21.65                                                             
C  4.03 11.62 34.02                                                             
C  4.03 11.62 46.40                                                             
C  4.03 11.62 58.77                                                             
C  8.05  9.30  9.28                                                             
C  8.05  9.30 21.65                                                             
C  8.05  9.30 34.02                                                             
C  8.05  9.30 46.40                                                             
C  8.05  9.30 58.77                                                             
C 12.08  6.97  9.28                                                             
C 12.08  6.97 21.65                                                             
C 12.08  6.97 34.02                                                             
C 12.08  6.97 46.40                                                             
C 12.08  6.97 58.77                                                             
C 16.10  4.65  9.28                                                             
C 16.10  4.65 21.65                                                             
C 16.10  4.65 34.02                                                             
C 16.10  4.65 46.40                                                             
C 16.10  4.65 58.77                                                             
C 20.13  2.32  9.28                                                             
C 20.13  2.32 21.65                                                             
C 20.13  2.32 34.02                                                             
C 20.13  2.32 46.40                                                             
C 20.13  2.32 58.77                                                             
C 24.16  0.00  9.28                                                             
C 24.16  0.00 21.65                                                             
C 24.16  0.00 34.02                                                             
C 24.16  0.00 46.40                                                             
C 24.16  0.00 58.77                                                             
C  4.03 16.27  9.28                                                             
C  4.03 16.27 21.65                                                             
C  4.03 16.27 34.02                                                             
C  4.03 16.27 46.40                                                             
C  4.03 16.27 58.77                                                             
C  8.05 13.95  9.28                                                             
C  8.05 13.95 21.65                                                             
C  8.05 13.95 34.02                                                             
C  8.05 13.95 46.40                                                             
C  8.05 13.95 58.77                                                             
C 12.08 11.62  9.28                                                             
C 12.08 11.62 21.65                                                             
C 12.08 11.62 34.02                                                             
C 12.08 11.62 46.40                                                             
C 12.08 11.62 58.77                                                             
C 16.10  9.30  9.28                                                             
C 16.10  9.30 21.65                                                             
C 16.10  9.30 34.02                                                             
C 16.10  9.30 46.40                                                             
C 16.10  9.30 58.77                                                             
C 20.13  6.97  9.28                                                             
C 20.13  6.97 21.65                                                             
C 20.13  6.97 34.02                                                             
C 20.13  6.97 46.40                                                             
C 20.13  6.97 58.77                                                             
C 24.16  4.65  9.28                                                             
C 24.16  4.65 21.65                                                             
C 24.16  4.65 34.02                                                             
C 24.16  4.65 46.40                                                             
C 24.16  4.65 58.77                                                             
C 28.18  2.32  9.28                                                             
C 28.18  2.32 21.65                                                             
C 28.18  2.32 34.02                                                             
C 28.18  2.32 46.40                                                             
C 28.18  2.32 58.77                                                             
C 12.08 16.27  9.28                                                             
C 12.08 16.27 21.65                                                             
C 12.08 16.27 34.02                                                             
C 12.08 16.27 46.40                                                             
C 12.08 16.27 58.77                                                             
C 16.10 13.95  9.28                                                             
C 16.10 13.95 21.65                                                             
C 16.10 13.95 34.02                                                             
C 16.10 13.95 46.40                                                             
C 16.10 13.95 58.77                                                             
C 20.13 11.62  9.28                                                             
C 20.13 11.62 21.65                                                             
C 20.13 11.62 34.02                                                             
C 20.13 11.62 46.40                                                             
C 20.13 11.62 58.77                                                             
C 24.16  9.30  9.28                                                             
C 24.16  9.30 21.65                                                             
C 24.16  9.30 34.02                                                             
C 24.16  9.30 46.40                                                             
C 24.16  9.30 58.77                                                             
C 28.18  6.97  9.28                                                             
C 28.18  6.97 21.65                                                             
C 28.18  6.97 34.02                                                             
C 28.18  6.97 46.40                                                             
C 28.18  6.97 58.77                                                             
C 20.13 16.27  9.28                                                             
C 20.13 16.27 21.65                                                             
C 20.13 16.27 34.02                                                             
C 20.13 16.27 46.40                                                             
C 20.13 16.27 58.77                                                             
C 24.16 13.95  9.28                                                             
C 24.16 13.95 21.65                                                             
C 24.16 13.95 34.02                                                             
C 24.16 13.95 46.40                                                             
C 24.16 13.95 58.77                                                             
C 28.18 11.62  9.28                                                             
C 28.18 11.62 21.65                                                             
C 28.18 11.62 34.02                                                             
C 28.18 11.62 46.40                                                             
C 28.18 11.62 58.77                                                             
C 28.18 16.27  9.28                                                             
C 28.18 16.27 21.65                                                             
C 28.18 16.27 34.02                                                             
C 28.18 16.27 46.40                                                             
C 28.18 16.27 58.77                                                             
C  1.34  2.32  3.09                                                             
C  1.34  2.32 15.47                                                             
C  1.34  2.32 27.84                                                             
C  1.34  2.32 40.21                                                             
C  1.34  2.32 52.58                                                             
C  5.37  0.00  3.09                                                             
C  5.37  0.00 15.47                                                             
C  5.37  0.00 27.84                                                             
C  5.37  0.00 40.21                                                             
C  5.37  0.00 52.58                                                             
C  1.34  6.97  3.09                                                             
C  1.34  6.97 15.47                                                             
C  1.34  6.97 27.84                                                             
C  1.34  6.97 40.21                                                             
C  1.34  6.97 52.58                                                             
C  5.37  4.65  3.09                                                             
C  5.37  4.65 15.47                                                             
C  5.37  4.65 27.84                                                             
C  5.37  4.65 40.21                                                             
C  5.37  4.65 52.58                                                             
C  9.39  2.32  3.09                                                             
C  9.39  2.32 15.47                                                             
C  9.39  2.32 27.84                                                             
C  9.39  2.32 40.21                                                             
C  9.39  2.32 52.58                                                             
C 13.42  0.00  3.09                                                             
C 13.42  0.00 15.47                                                             
C 13.42  0.00 27.84                                                             
C 13.42  0.00 40.21                                                             
C 13.42  0.00 52.58                                                             
C  1.34 11.62  3.09                                                             
C  1.34 11.62 15.47                                                             
C  1.34 11.62 27.84                                                             
C  1.34 11.62 40.21                                                             
C  1.34 11.62 52.58                                                             
C  5.37  9.30  3.09                                                             
C  5.37  9.30 15.47                                                             
C  5.37  9.30 27.84                                                             
C  5.37  9.30 40.21                                                             
C  5.37  9.30 52.58                                                             
C  9.39  6.97  3.09                                                             
C  9.39  6.97 15.47                                                             
C  9.39  6.97 27.84                                                             
C  9.39  6.97 40.21                                                             
C  9.39  6.97 52.58                                                             
C 13.42  4.65  3.09                                                             
C 13.42  4.65 15.47                                                             
C 13.42  4.65 27.84                                                             
C 13.42  4.65 40.21                                                             
C 13.42  4.65 52.58                                                             
C 17.45  2.32  3.09                                                             
C 17.45  2.32 15.47                                                             
C 17.45  2.32 27.84                                                             
C 17.45  2.32 40.21                                                             
C 17.45  2.32 52.58                                                             
C 21.47  0.00  3.09                                                             
C 21.47  0.00 15.47                                                             
C 21.47  0.00 27.84                                                             
C 21.47  0.00 40.21                                                             
C 21.47  0.00 52.58                                                             
C  1.34 16.27  3.09                                                             
C  1.34 16.27 15.47                                                             
C  1.34 16.27 27.84                                                             
C  1.34 16.27 40.21                                                             
C  1.34 16.27 52.58                                                             
C  5.37 13.95  3.09                                                             
C  5.37 13.95 15.47                                                             
C  5.37 13.95 27.84                                                             
C  5.37 13.95 40.21                                                             
C  5.37 13.95 52.58                                                             
C  9.39 11.62  3.09                                                             
C  9.39 11.62 15.47                                                             
C  9.39 11.62 27.84                                                             
C  9.39 11.62 40.21                                                             
C  9.39 11.62 52.58                                                             
C 13.42  9.30  3.09                                                             
C 13.42  9.30 15.47                                                             
C 13.42  9.30 27.84                                                             
C 13.42  9.30 40.21                                                             
C 13.42  9.30 52.58                                                             
C 17.45  6.97  3.09                                                             
C 17.45  6.97 15.47                                                             
C 17.45  6.97 27.84                                                             
C 17.45  6.97 40.21                                                             
C 17.45  6.97 52.58                                                             
C 21.47  4.65  3.09                                                             
C 21.47  4.65 15.47                                                             
C 21.47  4.65 27.84                                                             
C 21.47  4.65 40.21                                                             
C 21.47  4.65 52.58                                                             
C 25.50  2.32  3.09                                                             
C 25.50  2.32 15.47                                                             
C 25.50  2.32 27.84                                                             
C 25.50  2.32 40.21                                                             
C 25.50  2.32 52.58                                                             
C 29.52  0.00  3.09                                                             
C 29.52  0.00 15.47                                                             
C 29.52  0.00 27.84                                                             
C 29.52  0.00 40.21                                                             
C 29.52  0.00 52.58                                                             
C  9.39 16.27  3.09                                                             
C  9.39 16.27 15.47                                                             
C  9.39 16.27 27.84                                                             
C  9.39 16.27 40.21                                                             
C  9.39 16.27 52.58                                                             
C 13.42 13.95  3.09                                                             
C 13.42 13.95 15.47                                                             
C 13.42 13.95 27.84                                                             
C 13.42 13.95 40.21                                                             
C 13.42 13.95 52.58                                                             
C 17.45 11.62  3.09                                                             
C 17.45 11.62 15.47                                                             
C 17.45 11.62 27.84                                                             
C 17.45 11.62 40.21                                                             
C 17.45 11.62 52.58                                                             
C 21.47  9.30  3.09                                                             
C 21.47  9.30 15.47                                                             
C 21.47  9.30 27.84                                                             
C 21.47  9.30 40.21                                                             
C 21.47  9.30 52.58                                                             
C 25.50  6.97  3.09                                                             
C 25.50  6.97 15.47                                                             
C 25.50  6.97 27.84                                                             
C 25.50  6.97 40.21                                                             
C 25.50  6.97 52.58                                                             
C 29.52  4.65  3.09                                                             
C 29.52  4.65 15.47                                                             
C 29.52  4.65 27.84                                                             
C 29.52  4.65 40.21                                                             
C 29.52  4.65 52.58                                                             
C 17.45 16.27  3.09                                                             
C 17.45 16.27 15.47                                                             
C 17.45 16.27 27.84                                                             
C 17.45 16.27 40.21                                                             
C 17.45 16.27 52.58                                                             
C 21.47 13.95  3.09                                                             
C 21.47 13.95 15.47                                                             
C 21.47 13.95 27.84                                                             
C 21.47 13.95 40.21                                                             
C 21.47 13.95 52.58                                                             
C 25.50 11.62  3.09                                                             
C 25.50 11.62 15.47                                                             
C 25.50 11.62 27.84                                                             
C 25.50 11.62 40.21                                                             
C 25.50 11.62 52.58                                                             
C 29.52  9.30  3.09                                                             
C 29.52  9.30 15.47                                                             
C 29.52  9.30 27.84                                                             
C 29.52  9.30 40.21                                                             
C 29.52  9.30 52.58                                                             
C 25.50 16.27  3.09                                                             
C 25.50 16.27 15.47                                                             
C 25.50 16.27 27.84                                                             
C 25.50 16.27 40.21                                                             
C 25.50 16.27 52.58                                                             
C 29.52 13.95  3.09                                                             
C 29.52 13.95 15.47                                                             
C 29.52 13.95 27.84                                                             
C 29.52 13.95 40.21                                                             
C 29.52 13.95 52.58                                                             
C  2.68  0.00  9.28                                                             
C  2.68  0.00 21.65                                                             
C  2.68  0.00 34.02                                                             
C  2.68  0.00 46.40                                                             
C  2.68  0.00 58.77                                                             
C  2.68  4.65  9.28                                                             
C  2.68  4.65 21.65                                                             
C  2.68  4.65 34.02                                                             
C  2.68  4.65 46.40                                                             
C  2.68  4.65 58.77                                                             
C  6.71  2.32  9.28                                                             
C  6.71  2.32 21.65                                                             
C  6.71  2.32 34.02                                                             
C  6.71  2.32 46.40                                                             
C  6.71  2.32 58.77                                                             
C 10.74  0.00  9.28                                                             
C 10.74  0.00 21.65                                                             
C 10.74  0.00 34.02                                                             
C 10.74  0.00 46.40                                                             
C 10.74  0.00 58.77                                                             
C  2.68  9.30  9.28                                                             
C  2.68  9.30 21.65                                                             
C  2.68  9.30 34.02                                                             
C  2.68  9.30 46.40                                                             
C  2.68  9.30 58.77                                                             
C  6.71  6.97  9.28                                                             
C  6.71  6.97 21.65                                                             
C  6.71  6.97 34.02                                                             
C  6.71  6.97 46.40                                                             
C  6.71  6.97 58.77                                                             
C 10.74  4.65  9.28                                                             
C 10.74  4.65 21.65                                                             
C 10.74  4.65 34.02                                                             
C 10.74  4.65 46.40                                                             
C 10.74  4.65 58.77                                                             
C 14.76  2.32  9.28                                                             
C 14.76  2.32 21.65                                                             
C 14.76  2.32 34.02                                                             
C 14.76  2.32 46.40                                                             
C 14.76  2.32 58.77                                                             
C 18.79  0.00  9.28                                                             
C 18.79  0.00 21.65                                                             
C 18.79  0.00 34.02                                                             
C 18.79  0.00 46.40                                                             
C 18.79  0.00 58.77                                                             
C  2.68 13.95  9.28                                                             
C  2.68 13.95 21.65                                                             
C  2.68 13.95 34.02                                                             
C  2.68 13.95 46.40                                                             
C  2.68 13.95 58.77                                                             
C  6.71 11.62  9.28                                                             
C  6.71 11.62 21.65                                                             
C  6.71 11.62 34.02                                                             
C  6.71 11.62 46.40                                                             
C  6.71 11.62 58.77                                                             
C 10.74  9.30  9.28                                                             
C 10.74  9.30 21.65                                                             
C 10.74  9.30 34.02                                                             
C 10.74  9.30 46.40                                                             
C 10.74  9.30 58.77                                                             
C 14.76  6.97  9.28                                                             
C 14.76  6.97 21.65                                                             
C 14.76  6.97 34.02                                                             
C 14.76  6.97 46.40                                                             
C 14.76  6.97 58.77                                                             
C 18.79  4.65  9.28                                                             
C 18.79  4.65 21.65                                                             
C 18.79  4.65 34.02                                                             
C 18.79  4.65 46.40                                                             
C 18.79  4.65 58.77                                                             
C 22.81  2.32  9.28                                                             
C 22.81  2.32 21.65                                                             
C 22.81  2.32 34.02                                                             
C 22.81  2.32 46.40                                                             
C 22.81  2.32 58.77                                                             
C 26.84  0.00  9.28                                                             
C 26.84  0.00 21.65                                                             
C 26.84  0.00 34.02                                                             
C 26.84  0.00 46.40                                                             
C 26.84  0.00 58.77                                                             
C  6.71 16.27  9.28                                                             
C  6.71 16.27 21.65                                                             
C  6.71 16.27 34.02                                                             
C  6.71 16.27 46.40                                                             
C  6.71 16.27 58.77                                                             
C 10.74 13.95  9.28                                                             
C 10.74 13.95 21.65                                                             
C 10.74 13.95 34.02                                                             
C 10.74 13.95 46.40                                                             
C 10.74 13.95 58.77                                                             
C 14.76 11.62  9.28                                                             
C 14.76 11.62 21.65                                                             
C 14.76 11.62 34.02                                                             
C 14.76 11.62 46.40                                                             
C 14.76 11.62 58.77                                                             
C 18.79  9.30  9.28                                                             
C 18.79  9.30 21.65                                                             
C 18.79  9.30 34.02                                                             
C 18.79  9.30 46.40                                                             
C 18.79  9.30 58.77                                                             
C 22.81  6.97  9.28                                                             
C 22.81  6.97 21.65                                                             
C 22.81  6.97 34.02                                                             
C 22.81  6.97 46.40                                                             
C 22.81  6.97 58.77                                                             
C 26.84  4.65  9.28                                                             
C 26.84  4.65 21.65                                                             
C 26.84  4.65 34.02                                                             
C 26.84  4.65 46.40                                                             
C 26.84  4.65 58.77                                                             
C 30.86  2.32  9.28                                                             
C 30.86  2.32 21.65                                                             
C 30.86  2.32 34.02                                                             
C 30.86  2.32 46.40                                                             
C 30.86  2.32 58.77                                                             
C 14.76 16.27  9.28                                                             
C 14.76 16.27 21.65                                                             
C 14.76 16.27 34.02                                                             
C 14.76 16.27 46.40                                                             
C 14.76 16.27 58.77                                                             
C 18.79 13.95  9.28                                                             
C 18.79 13.95 21.65                                                             
C 18.79 13.95 34.02                                                             
C 18.79 13.95 46.40                                                             
C 18.79 13.95 58.77                                                             
C 22.81 11.62  9.28                                                             
C 22.81 11.62 21.65                                                             
C 22.81 11.62 34.02                                                             
C 22.81 11.62 46.40                                                             
C 22.81 11.62 58.77                                                             
C 26.84  9.30  9.28                                                             
C 26.84  9.30 21.65                                                             
C 26.84  9.30 34.02                                                             
C 26.84  9.30 46.40                                                             
C 26.84  9.30 58.77                                                             
C 30.86  6.97  9.28                                                             
C 30.86  6.97 21.65                                                             
C 30.86  6.97 34.02                                                             
C 30.86  6.97 46.40                                                             
C 30.86  6.97 58.77                                                             
C 22.81 16.27  9.28                                                             
C 22.81 16.27 21.65                                                             
C 22.81 16.27 34.02                                                             
C 22.81 16.27 46.40                                                             
C 22.81 16.27 58.77                                                             
C 26.84 13.95  9.28                                                             
C 26.84 13.95 21.65                                                             
C 26.84 13.95 34.02                                                             
C 26.84 13.95 46.40                                                             
C 26.84 13.95 58.77                                                             
C 30.86 11.62  9.28                                                             
C 30.86 11.62 21.65                                                             
C 30.86 11.62 34.02                                                             
C 30.86 11.62 46.40                                                             
C 30.86 11.62 58.77                                                             
C 30.86 16.27  9.28                                                             
C 30.86 16.27 21.65                                                             
C 30.86 16.27 34.02                                                             
C 30.86 16.27 46.40                                                             
C 30.86 16.27 58.77                                                             
%ENDBLOCK POSITIONS_ABS                                                         

--------------------------------------------------------------------------------
-------------------------------- END INPUT FILE --------------------------------
--------------------------------------------------------------------------------


 
<<<<<<<<<<<<<<<<<<<<<<<<<<<<<<<<< Full system >>>>>>>>>>>>>>>>>>>>>>>>>>>>>>>>>>
<<<<<<<<<<<<<<<<<<<<<<<<<<< PAW Dataset information >>>>>>>>>>>>>>>>>>>>>>>>>>>
File: ~/pp/paw/c_pbe_abinit.paw; rc = 1.25 bohr; shape type =  3; rshape = 1.25 bohr;
  Atomic number:  6;  ionic charge:  4.000000
    Partial Wave 1: l = 0
    Partial Wave 2: l = 0
    Partial Wave 3: l = 1
    Partial Wave 4: l = 1
  Core charge supplied for Nonlinear Core Corrections
<<<<<<<<<<<<<<<<<<<<<<<<<<<<<<<<<<<<<<< >>>>>>>>>>>>>>>>>>>>>>>>>>>>>>>>>>>>>>>

-------------------------- Atom counting information ---------------------------
Symbol    Natoms    Nngwfs    Nprojs
  C        640      2560      5120
.......   ......    ......    ......
Totals:    640      2560      5120
--------------------------------------------------------------------------------

=============================== PSINC grid sizes ===============================
                      Simulation cell:   63 x  35 x 122
                              FFT-box:   63 x  35 x 117
                                  PPD:    7 x   5 x   1
Grid space d1=  0.511269841270a0 (KE cutoff=  29.06054Eh = 790.77748eV)
Grid space d2=  0.531142857143a0 (KE cutoff=  26.92659Eh = 732.70972eV)
Grid space d3=  0.507049180328a0 (KE cutoff=  29.54635Eh = 803.99708eV)
================================================================================
  
WARNING in cell_grid_distribute:
Average of less than one 23-slab per node, so workload cannot be
equally balanced between nodes.

********************* Fourier parallelisation information **********************
       Coarse grid (whole simulation cell) dimensions:     63    35   122
          Real-space ('12') slabs/node (min max mean):      3     4     3
         Recip-space ('23') slabs/node (min max mean):      0     1     0
********************************************************************************

********************* Fourier parallelisation information **********************
       Double grid (whole simulation cell) dimensions:    126    70   244
          Real-space ('12') slabs/node (min max mean):      6     7     6
         Recip-space ('23') slabs/node (min max mean):      1     2     1
********************************************************************************

Atom SCF Calculation for C  : Z (AE atom) =   6 : Z (PS atom) =   4
Config String: 2s2 2p2
Orbitals (num,occ):  2     2.00 2.00
Orbitals   (num,l):  2        0    1
Real-space Grid (nr,dr,rmax): 1293    0.0069659443    9.0000000000
Spherical Bessel Basis (nsws,lmax,cutoff):   37    2  161.4736382572
Confining potential (l,width,scale):  0    3.0000000000  100.0000000000
Confining potential (l,width,scale):  1    3.0000000000  100.0000000000
  1         -5.4691149987   -1.3647045835    4.5135257941   -1.6713568800
  2         -5.5214542834   -1.4154291535    4.4635199061   -1.6585170582
  3         -5.5221055910   -1.4439161209    4.4342087028   -1.6520281659
  4         -5.5287901521   -1.4522301802    4.4259176063   -1.6507873939
  5         -5.5308251003   -1.4557840400    4.4224142384   -1.6502632738
  6         -5.5317252094   -1.4571386008    4.4211068249   -1.6500892907
  7         -5.5320765973   -1.4576738924    4.4205997642   -1.6500256779
  8         -5.5322192721   -1.4578833190    4.4204056023   -1.6500032912
  9         -5.5322765240   -1.4579657561    4.4203308649   -1.6499954152
 10         -5.5322995843   -1.4579982639    4.4203020904   -1.6499927055
 11         -5.5323088576   -1.4580111317    4.4202909828   -1.6499917962
 12         -5.5323125859   -1.4580162439    4.4202866844   -1.6499915030
 13         -5.5323140836   -1.4580182832    4.4202850159   -1.6499914143
 14         -5.5323146847   -1.4580191002    4.4202843659   -1.6499913905
 15         -5.5323149258   -1.4580194290    4.4202841117   -1.6499913858
 16         -5.5323150224   -1.4580195619    4.4202840119   -1.6499913859
Atom SCF converged after  16 iterations to a total energy of     -5.53231502

Determining parallel strategy ...
... using space-filling curve
... NGWF load balancing: max     64;  min     64;  average     64
... Projector load balancing: max    128;  min    128;  average    128
... done
Calculating Ewald energy ...
              Ewald: real-space energy =    9513.649447
        Ewald: reciprocal-space energy =       0.059796
         Ewald: (sum_charge)**2 Energy =   11406.785290
         Ewald: (sum_charge**2) Energy =     901.785557
                          Ewald Energy =   -2794.861604
Basis initialisation ...... NGWF spheres initialised
... Projector spheres initialised
... NGWF tight boxes initialised
... Projector tight boxes initialised
... Tight-boxes gathered
... NGWF basis size (local,global):     694868  27907776
... PAW projector initialisation
... done

============================= Charge Augmentation ==============================
                           Aug box size:   11 x  11 x  11
================================================================================

========================== Sparse matrix information ===========================
                        Overlap matrix filling:  44.38%
                        Density kernel filling: 100.00%
              NGWF-Proj overlap matrix filling:  13.12%
                    Aug Overlap matrix filling:  47.81%
                    Hamiltonian matrix filling:  47.81%
                  NGWF diagonal matrix filling:   0.16%
                             KS matrix filling: 100.00% 
                           KSKS matrix filling: 100.00% 
================================================================================

Sparse matrix initialisation ... done
NGWF initialisation ...... done
============ Calculation of NGWF S^-1 using Hotelling algorithm ================ 
         Iteration  |  Frobenius norm and Maximum abs value    (of I-S*S_n^-1)   
               1       0.49188456E+02     0.97765281E+00
               2       0.48047155E+02     0.95708757E+00
               3       0.46306697E+02     0.92034755E+00
               4       0.44008070E+02     0.85975731E+00
               5       0.41223869E+02     0.76927807E+00
               6       0.37931506E+02     0.68760490E+00
               7       0.34400444E+02     0.63784039E+00
               8       0.30999626E+02     0.59616106E+00
               9       0.27455466E+02     0.55316110E+00
              10       0.23053157E+02     0.48800286E+00
              11       0.17310605E+02     0.38337769E+00
              12       0.10562653E+02     0.24124336E+00
              13       0.44698412E+01     0.10100242E+00
              14       0.95331179E+00     0.20027972E-01
              15       0.51187110E-01     0.95376260E-03
              16       0.18151969E-03     0.27108871E-05
              17       0.33547500E-08     0.31838976E-10
              18       0.78859514E-13     0.35527137E-14
================================================================================
Calculating core density ...
================================= Core Density =================================
               Core den box size:   21 x  21 x  21
================================================================================
 ... done
Up spin density kernel initialisation ...... done

Writing density kernel to file "3.2735064_GO_manual_4x64graphite.dkn" ... done

>>> Optimising kernel for current NGWFs:

--------------------------- Ensemble-DFT optimisation --------------------------
Running ScaLAPACK on   40 processor(s).

--------------------------------------------------------------------------------
  Iter                              Commutator    Free_energy(A=E-TS)     DeltaA
#    0                          0.000047492812   -3682.35664197706865  -3.68E+03

Step                       =       0.381966011250
Energy                     =   -3682.356597748189
Entropy (-TS)              =      -0.000044228641
Free energy (A=E-TS)       =   -3682.356641977069
Est. 0K Energy 0.5*(E+A)   =   -3682.356619862629
Residual Non-orthogonality =       0.000000000000
Residual N_electrons       =      -0.000000000238

Spin          Integrated_Ne            Fermi_level     Delta_Fermi_level
   1      2560.000000001088         0.218756499211              2.19E-01

                           Spin 1          
     Orb      H-eigenvalues     Occupancies
       1 |    -0.4979376500    1.0000000000 | 
                          ------
    1276 |     0.1861222027    0.9999665390 | 
    1277 |     0.1867228235    0.9999595513 | 
    1278 |     0.1867370254    0.9999593695 | 
    1279 |     0.1872184137    0.9999526994 | 
    1280 |     0.1878248971    0.9999427158 | 
                 - Gap at zero temperature -
    1281 |     0.2521752840    0.0000261191 | 
    1282 |     0.2521868948    0.0000260235 | 
    1283 |     0.2522480813    0.0000255255 | 
    1284 |     0.2524091197    0.0000242600 | 
    1285 |     0.2524207101    0.0000241714 | 
                          ------
    2560 |     1.0388100520    0.0000000000 | 

                       |  Abs_value |  Threshold | Converged
     Delta_Free_energy |   3.68E+03 |   1.00E-06 |        No
     Delta_Energy      |   3.68E+03 |   1.00E-04 |        No
     Delta_Entropy     |   4.42E-05 |   1.00E-04 |       Yes
     Commutator        |   4.75E-05 |   1.00E-05 |        No
     Delta_Fermi_level |   2.19E-01 |   1.00E-03 |        No

  Line search of the free energy minimum:
  Step_type        Step             Free_energy   Predicted_free_energy
.   Initial    0.000000    -3682.35664197706865
.    Trial1    0.381966    -3682.35890660916448
.    Trial2    0.618034    -3682.35907513554275
. Quadratic    0.542302    -3682.35912257611972    -3682.35912353071126

--------------------------------------------------------------------------------
  Iter                              Commutator    Free_energy(A=E-TS)     DeltaA
#    1                          0.000025731220   -3682.35912257611972  -2.48E-03

Step                       =       0.542301844947
Energy                     =   -3682.359080817459
Entropy (-TS)              =      -0.000041758922
Free energy (A=E-TS)       =   -3682.359122576120
Est. 0K Energy 0.5*(E+A)   =   -3682.359101696789
Residual Non-orthogonality =       0.000000000000
Residual N_electrons       =       0.000000000261

Spin          Integrated_Ne            Fermi_level     Delta_Fermi_level
   1      2559.999999998826         0.222016190184              3.26E-03

                           Spin 1          
     Orb      H-eigenvalues     Occupancies
       1 |    -0.4964633921    1.0000000000 | 
                          ------
    1276 |     0.1892760332    0.9999676390 | 
    1277 |     0.1897200381    0.9999627685 | 
    1278 |     0.1897398320    0.9999625351 | 
    1279 |     0.1903902371    0.9999539937 | 
    1280 |     0.1908457918    0.9999468763 | 
                 - Gap at zero temperature -
    1281 |     0.2555851987    0.0000249090 | 
    1282 |     0.2556243403    0.0000246031 | 
    1283 |     0.2556894262    0.0000241026 | 
    1284 |     0.2559012954    0.0000225428 | 
    1285 |     0.2559561172    0.0000221560 | 
                          ------
    2560 |     1.0435193547    0.0000000000 | 

                       |  Abs_value |  Threshold | Converged
     Delta_Free_energy |   2.48E-03 |   1.00E-06 |        No
     Delta_Energy      |   2.48E-03 |   1.00E-04 |        No
     Delta_Entropy     |   2.47E-06 |   1.00E-04 |       Yes
     Commutator        |   2.57E-05 |   1.00E-05 |        No
     Delta_Fermi_level |   3.26E-03 |   1.00E-03 |        No

  Line search of the free energy minimum:
  Step_type        Step             Free_energy   Predicted_free_energy
.   Initial    0.000000    -3682.35912257611972
.    Trial1    0.542302    -3682.35910656727083
.    Trial2    0.207141    -3682.35966191354419
. Quadratic    0.269272    -3682.35969184860551    -3682.35969224263818

--------------------------------------------------------------------------------
  Iter                              Commutator    Free_energy(A=E-TS)     DeltaA
#    2                          0.000015474232   -3682.35969184860551  -5.69E-04

Step                       =       0.269272248042
Energy                     =   -3682.359650728815
Entropy (-TS)              =      -0.000041119581
Free energy (A=E-TS)       =   -3682.359691848606
Est. 0K Energy 0.5*(E+A)   =   -3682.359671288710
Residual Non-orthogonality =       0.000000000000
Residual N_electrons       =      -0.000000000210

Spin          Integrated_Ne            Fermi_level     Delta_Fermi_level
   1      2560.000000000944         0.222732290508              7.16E-04

                           Spin 1          
     Orb      H-eigenvalues     Occupancies
       1 |    -0.4961348009    1.0000000000 | 
                          ------
    1276 |     0.1899117167    0.9999684504 | 
    1277 |     0.1904077727    0.9999631005 | 
    1278 |     0.1904272830    0.9999628725 | 
    1279 |     0.1910215395    0.9999552092 | 
    1280 |     0.1915286784    0.9999474305 | 
                 - Gap at zero temperature -
    1281 |     0.2563654476    0.0000244096 | 
    1282 |     0.2564040067    0.0000241142 | 
    1283 |     0.2564669063    0.0000236399 | 
    1284 |     0.2566920035    0.0000220180 | 
    1285 |     0.2566957942    0.0000219916 | 
                          ------
    2560 |     1.0445746082    0.0000000000 | 

                       |  Abs_value |  Threshold | Converged
     Delta_Free_energy |   5.69E-04 |   1.00E-06 |        No
     Delta_Energy      |   5.70E-04 |   1.00E-04 |        No
     Delta_Entropy     |   6.39E-07 |   1.00E-04 |       Yes
     Commutator        |   1.55E-05 |   1.00E-05 |        No
     Delta_Fermi_level |   7.16E-04 |   1.00E-03 |       Yes

  Line search of the free energy minimum:
  Step_type        Step             Free_energy   Predicted_free_energy
.   Initial    0.000000    -3682.35969184860551
.    Trial1    0.269272    -3682.35988424458628
.    Trial2    0.548385    -3682.35976040878541
. Quadratic    0.303791    -3682.35988671983796    -3682.35988676109901

--------------------------------------------------------------------------------
  Iter                              Commutator    Free_energy(A=E-TS)     DeltaA
#    3                          0.000010963806   -3682.35988671983796  -1.95E-04

Step                       =       0.303790958899
Energy                     =   -3682.359846101347
Entropy (-TS)              =      -0.000040619003
Free energy (A=E-TS)       =   -3682.359886719838
Est. 0K Energy 0.5*(E+A)   =   -3682.359866410593
Residual Non-orthogonality =       0.000000000000
Residual N_electrons       =       0.000000000513

Spin          Integrated_Ne            Fermi_level     Delta_Fermi_level
   1      2559.999999997705         0.223328955265              5.97E-04

                           Spin 1          
     Orb      H-eigenvalues     Occupancies
       1 |    -0.4958555377    1.0000000000 | 
                          ------
    1276 |     0.1904599668    0.9999689290 | 
    1277 |     0.1909692170    0.9999635086 | 
    1278 |     0.1909882835    0.9999632882 | 
    1279 |     0.1915692347    0.9999558965 | 
    1280 |     0.1920890727    0.9999480291 | 
                 - Gap at zero temperature -
    1281 |     0.2570060420    0.0000240733 | 
    1282 |     0.2570439344    0.0000237870 | 
    1283 |     0.2571073719    0.0000233152 | 
    1284 |     0.2573261967    0.0000217586 | 
    1285 |     0.2573339755    0.0000217052 | 
                          ------
    2560 |     1.0454636631    0.0000000000 | 

                       |  Abs_value |  Threshold | Converged
     Delta_Free_energy |   1.95E-04 |   1.00E-06 |        No
     Delta_Energy      |   1.95E-04 |   1.00E-04 |        No
     Delta_Entropy     |   5.01E-07 |   1.00E-04 |       Yes
     Commutator        |   1.10E-05 |   1.00E-05 |        No
     Delta_Fermi_level |   5.97E-04 |   1.00E-03 |       Yes

  Line search of the free energy minimum:
  Step_type        Step             Free_energy   Predicted_free_energy
.   Initial    0.000000    -3682.35988671983796
.    Trial1    0.303791    -3682.35997710810670
.    Trial2    0.569719    -3682.35985856474645
. Quadratic    0.265920    -3682.35997900027178    -3682.35997897925608

--------------------------------------------------------------------------------
  Iter                              Commutator    Free_energy(A=E-TS)     DeltaA
#    4                          0.000007789770   -3682.35997900027178  -9.23E-05

Step                       =       0.265920488568
Energy                     =   -3682.359938676924
Entropy (-TS)              =      -0.000040323117
Free energy (A=E-TS)       =   -3682.359979000272
Est. 0K Energy 0.5*(E+A)   =   -3682.359958838598
Residual Non-orthogonality =       0.000000000000
Residual N_electrons       =      -0.000000000232

Spin          Integrated_Ne            Fermi_level     Delta_Fermi_level
   1      2560.000000001035         0.223694010480              3.65E-04

                           Spin 1          
[...]
 C   160 -- C   385       -0.09      5.37000
 C   159 -- C   384       -0.09      5.37000
 C   158 -- C   383       -0.09      5.37000
 C   157 -- C   382       -0.09      5.37000
 C   156 -- C   381       -0.09      5.37000
 C   155 -- C   355       -0.09      5.37000
 C   154 -- C   354       -0.09      5.37000
 C   153 -- C   353       -0.09      5.37000
 C   152 -- C   352       -0.09      5.37000
 C   151 -- C   351       -0.09      5.37000
 C   140 -- C   335       -0.09      5.37000
 C   139 -- C   334       -0.09      5.37000
 C   138 -- C   333       -0.09      5.37000
 C   137 -- C   332       -0.09      5.37000
 C   136 -- C   331       -0.09      5.37000
 C   115 -- C   325       -0.09      5.37000
 C   114 -- C   324       -0.09      5.37000
 C   113 -- C   323       -0.09      5.37000
 C   112 -- C   322       -0.09      5.37000
 C   111 -- C   321       -0.09      5.37000
 C   219 -- C   569       -0.09      5.37202
 C   218 -- C   568       -0.09      5.37202
 C   217 -- C   567       -0.09      5.37202
 C   216 -- C   566       -0.09      5.37202
 C   250 -- C   540       -0.09      5.37202
 C   249 -- C   539       -0.09      5.37202
 C   248 -- C   538       -0.09      5.37202
 C   247 -- C   537       -0.09      5.37202
 C   246 -- C   536       -0.09      5.37202
 C   220 -- C   570       -0.09      5.37202
 C   285 -- C   580       -0.09      5.37202
 C   284 -- C   579       -0.09      5.37202
 C   283 -- C   578       -0.09      5.37202
 C   282 -- C   577       -0.09      5.37202
 C   281 -- C   576       -0.09      5.37202
 C   260 -- C   605       -0.09      5.37202
 C   259 -- C   604       -0.09      5.37202
 C   258 -- C   603       -0.09      5.37202
 C   257 -- C   602       -0.09      5.37202
 C   256 -- C   601       -0.09      5.37202
 C   220 -- C   515       -0.09      5.37202
 C   219 -- C   514       -0.09      5.37202
 C   218 -- C   513       -0.09      5.37202
 C   217 -- C   512       -0.09      5.37202
 C   216 -- C   511       -0.09      5.37202
 C   195 -- C   540       -0.09      5.37202
 C   195 -- C   500       -0.09      5.37202
 C   194 -- C   539       -0.09      5.37202
 C   194 -- C   499       -0.09      5.37202
 C   193 -- C   538       -0.09      5.37202
 C   193 -- C   498       -0.09      5.37202
 C   192 -- C   537       -0.09      5.37202
 C   192 -- C   497       -0.09      5.37202
 C   191 -- C   536       -0.09      5.37202
 C   191 -- C   496       -0.09      5.37202
 C   180 -- C   515       -0.09      5.37202
 C   179 -- C   514       -0.09      5.37202
 C   178 -- C   513       -0.09      5.37202
 C   177 -- C   512       -0.09      5.37202
 C   176 -- C   511       -0.09      5.37202
 C    11 -- C   331       -0.09      5.37202
 C   205 -- C   550       -0.09      5.37202
 C   204 -- C   549       -0.09      5.37202
 C   203 -- C   548       -0.09      5.37202
 C   202 -- C   547       -0.09      5.37202
 C   201 -- C   546       -0.09      5.37202
 C    95 -- C   425       -0.09      5.37202
 C    95 -- C   365       -0.09      5.37202
 C    94 -- C   424       -0.09      5.37202
 C    94 -- C   364       -0.09      5.37202
 C    93 -- C   423       -0.09      5.37202
 C    93 -- C   363       -0.09      5.37202
 C    92 -- C   422       -0.09      5.37202
 C    92 -- C   362       -0.09      5.37202
 C    91 -- C   421       -0.09      5.37202
 C    91 -- C   361       -0.09      5.37202
 C    40 -- C   365       -0.09      5.37202
 C    39 -- C   364       -0.09      5.37202
 C    38 -- C   363       -0.09      5.37202
 C    37 -- C   362       -0.09      5.37202
 C    36 -- C   361       -0.09      5.37202
 C    15 -- C   335       -0.09      5.37202
 C    65 -- C   395       -0.09      5.37202
 C    65 -- C   345       -0.09      5.37202
 C    64 -- C   394       -0.09      5.37202
 C    64 -- C   344       -0.09      5.37202
 C    63 -- C   393       -0.09      5.37202
 C    30 -- C   355       -0.09      5.37202
 C    63 -- C   343       -0.09      5.37202
 C    62 -- C   392       -0.09      5.37202
 C    30 -- C   325       -0.09      5.37202
 C    14 -- C   334       -0.09      5.37202
 C    62 -- C   342       -0.09      5.37202
 C    61 -- C   391       -0.09      5.37202
 C    29 -- C   354       -0.09      5.37202
 C    61 -- C   341       -0.09      5.37202
 C    29 -- C   324       -0.09      5.37202
 C   260 -- C   550       -0.09      5.37202
 C   259 -- C   549       -0.09      5.37202
 C    28 -- C   353       -0.09      5.37202
 C   258 -- C   548       -0.09      5.37202
 C   257 -- C   547       -0.09      5.37202
 C   256 -- C   546       -0.09      5.37202
 C    28 -- C   323       -0.09      5.37202
 C    27 -- C   352       -0.09      5.37202
 C    13 -- C   333       -0.09      5.37202
 C    27 -- C   322       -0.09      5.37202
 C   120 -- C   395       -0.09      5.37202
 C    26 -- C   351       -0.09      5.37202
 C   119 -- C   394       -0.09      5.37202
 C   118 -- C   393       -0.09      5.37202
 C    55 -- C   335       -0.09      5.37202
 C   117 -- C   392       -0.09      5.37202
 C    26 -- C   321       -0.09      5.37202
 C   116 -- C   391       -0.09      5.37202
 C    54 -- C   334       -0.09      5.37202
 C    12 -- C   332       -0.09      5.37202
 C    53 -- C   333       -0.09      5.37202
 C   230 -- C   580       -0.09      5.37202
 C   230 -- C   525       -0.09      5.37202
 C   229 -- C   579       -0.09      5.37202
 C   229 -- C   524       -0.09      5.37202
 C   228 -- C   578       -0.09      5.37202
 C    52 -- C   332       -0.09      5.37202
 C   228 -- C   523       -0.09      5.37202
 C   227 -- C   577       -0.09      5.37202
 C   227 -- C   522       -0.09      5.37202
 C   226 -- C   576       -0.09      5.37202
 C   226 -- C   521       -0.09      5.37202
 C    51 -- C   331       -0.09      5.37202
 C    23 -- C   478       -0.09      5.37202
 C    49 -- C   469       -0.09      5.37202
 C    48 -- C   468       -0.09      5.37202
 C    47 -- C   467       -0.09      5.37202
 C    22 -- C   477       -0.09      5.37202
 C    46 -- C   466       -0.09      5.37202
 C    21 -- C   476       -0.09      5.37202
 C    85 -- C   355       -0.09      5.37202
 C    84 -- C   354       -0.09      5.37202
 C    83 -- C   353       -0.09      5.37202
 C    82 -- C   352       -0.09      5.37202
 C    81 -- C   351       -0.09      5.37202
 C    55 -- C   385       -0.09      5.37202
 C    54 -- C   384       -0.09      5.37202
 C    25 -- C   480       -0.09      5.37202
 C    53 -- C   383       -0.09      5.37202
 C    52 -- C   382       -0.09      5.37202
 C    51 -- C   381       -0.09      5.37202
 C    24 -- C   479       -0.09      5.37202
 C    50 -- C   470       -0.09      5.37202
 C    24 -- C   449       -0.09      5.37202
 C     6 -- C   416       -0.09      5.37202
 C    23 -- C   448       -0.09      5.37202
 C    22 -- C   447       -0.09      5.37202
 C    10 -- C   470       -0.09      5.37202
 C     5 -- C   450       -0.09      5.37202
 C    21 -- C   446       -0.09      5.37202
 C    10 -- C   420       -0.09      5.37202
 C     9 -- C   469       -0.09      5.37202
 C     9 -- C   419       -0.09      5.37202
 C     8 -- C   468       -0.09      5.37202
 C     4 -- C   449       -0.09      5.37202
 C   150 -- C   440       -0.09      5.37202
 C   149 -- C   439       -0.09      5.37202
 C   148 -- C   438       -0.09      5.37202
 C   147 -- C   437       -0.09      5.37202
 C     8 -- C   418       -0.09      5.37202
 C   146 -- C   436       -0.09      5.37202
 C     2 -- C   447       -0.09      5.37202
 C   135 -- C   460       -0.09      5.37202
 C     7 -- C   467       -0.09      5.37202
 C   134 -- C   459       -0.09      5.37202
 C   133 -- C   458       -0.09      5.37202
 C   132 -- C   457       -0.09      5.37202
 C   131 -- C   456       -0.09      5.37202
 C     7 -- C   417       -0.09      5.37202
 C     1 -- C   446       -0.09      5.37202
 C     6 -- C   466       -0.09      5.37202
 C    25 -- C   450       -0.09      5.37202
 C     3 -- C   448       -0.09      5.37202
 C   106 -- C   436       -0.09      5.37202
 C   106 -- C   376       -0.09      5.37202
 C    80 -- C   410       -0.09      5.37202
 C    79 -- C   409       -0.09      5.37202
 C    78 -- C   408       -0.09      5.37202
 C    77 -- C   407       -0.09      5.37202
 C    76 -- C   406       -0.09      5.37202
 C   135 -- C   410       -0.09      5.37202
 C   134 -- C   409       -0.09      5.37202
 C   133 -- C   408       -0.09      5.37202
 C   132 -- C   407       -0.09      5.37202
 C   131 -- C   406       -0.09      5.37202
 C   110 -- C   440       -0.09      5.37202
 C   110 -- C   380       -0.09      5.37202
 C   109 -- C   439       -0.09      5.37202
 C   109 -- C   379       -0.09      5.37202
 C   108 -- C   438       -0.09      5.37202
 C   108 -- C   378       -0.09      5.37202
 C   107 -- C   437       -0.09      5.37202
 C   107 -- C   377       -0.09      5.37202
 C   215 -- C   635       -0.09      5.38000
 C   214 -- C   634       -0.09      5.38000
 C   213 -- C   633       -0.09      5.38000
 C   212 -- C   632       -0.09      5.38000
 C   211 -- C   631       -0.09      5.38000
 C   190 -- C   620       -0.09      5.38000
 C   189 -- C   619       -0.09      5.38000
 C   188 -- C   618       -0.09      5.38000
 C   187 -- C   617       -0.09      5.38000
 C   186 -- C   616       -0.09      5.38000
 C   175 -- C   595       -0.09      5.38000
 C   174 -- C   594       -0.09      5.38000
 C   173 -- C   593       -0.09      5.38000
 C   172 -- C   592       -0.09      5.38000
 C   171 -- C   591       -0.09      5.38000
 C   245 -- C   640       -0.09      5.38000
 C   244 -- C   639       -0.09      5.38000
 C   243 -- C   638       -0.09      5.38000
 C   242 -- C   637       -0.09      5.38000
 C   241 -- C   636       -0.09      5.38000
==================================================


=================== Orbital energy and occupancy information ===================

      Total number of orbitals:    2560
        Occupancy sum (kernel):    1280.000000001
   Occupancy sum (eigenvalues):    1280.000000001
                 HOMO-LUMO gap:       0.000039251 Eh
                 Mid-gap level:       0.301293527 Eh

                        Orbital | Energy (Eh) | Occupancy
                            1    -0.452922436   1.0000000
                        .......   ...........   .........
                         1272     0.233441312   0.9999873
                         1273     0.233810232   0.9999857
                         1274     0.233909498   0.9999853
                         1275     0.237732751   0.9999508
                         1276     0.237737191   0.9999507
                         1277     0.238178411   0.9999433
                         1278     0.238182869   0.9999432
                         1279     0.238523862   0.9999368
                         1280     0.238954472   0.9999275
                         1281     0.301273901   0.0000391
                        ....... -- gap at 0K -- .........
                         1282     0.301313152   0.0000386
                         1283     0.301535667   0.0000360
                         1284     0.301574853   0.0000356
                         1285     0.302213616   0.0000292
                         1286     0.302229138   0.0000290
                         1287     0.302492152   0.0000267
                         1288     0.302507582   0.0000266
                         1289     0.302877419   0.0000237
                         1290     0.303161989   0.0000217
                         1291     0.303170187   0.0000214
                        .......   ...........   .........
                         2560     1.147807274   0.0000000

================================================================================

===================== Writing canonical molecular orbitals =====================
| Orbital  Energy (eV)  Norm     |
| HOMO      8.19808000  1.000000 | Writing "3.2735064_GO_manual_4x64graphite_HOMO.cube" ... done
Writing "3.2735064_GO_manual_4x64graphite_HOMO.dx" ... done
| LUMO      8.19914808  1.000000 | Writing "3.2735064_GO_manual_4x64graphite_LUMO.cube" ... done
Writing "3.2735064_GO_manual_4x64graphite_LUMO.dx" ... done
================================================================================
 
===================== Density of States (DOS) calculation ======================
Writing "3.2735064_GO_manual_4x64graphite_DOS.txt" ...  done
================================================================================
 
Writing bands to file "3.2735064_GO_manual_4x64graphite.val_bands" ... done
 
================ Projected Density of States (pDOS) calculation ================
 
Constructing AM resolved functions  ...... done
Writing NGWF plot files in formats: CUBE DX ...  done
 
Performing overlap integrals ...  done
 
Computing pDOS weights ...  done
 
All bands spilling parameter =   3.94 %
Occupancy-weighted spilling parameter =   0.90 %
 
 => Outputting data for OptaDOS <=
 
Writing pDOS weights to file "3.2735064_GO_manual_4x64graphite.val_pdos_bin" ... done
 
Writing band gradients to file "3.2735064_GO_manual_4x64graphite.val_dome_bin" ... done
 
Writing Castep output cell file to "3.2735064_GO_manual_4x64graphite-out.cell" ... done
 
 => Computing Gaussian smeared pDOS <= 
Writing "3.2735064_GO_manual_4x64graphite_PDOS.txt" ...  done
 
 => Computing Occupancy-weighted Gaussian smeared pDOS <= 
Writing "3.2735064_GO_manual_4x64graphite_occ_PDOS.txt" ...  done
  => Band centres: 
 S band centre of group 1:  -15.553058 eV
 P band centre of group 1:   -8.450613 eV
  Band centres done. <=
  => Integrated number of electrons in each AM band: 
 S num electrons of group 1:  574.810306
 P num electrons of group 1: 1962.241769
  Integrated number of electrons done. <=
================================================================================

------------------------------ TIMING INFORMATION ------------------------------
AVERAGE TIME:    4317.662s on     40 node(s)                                    
TOTAL TIME:      4317.663s on     40 node(s)                                    
================= AVERAGE TIMINGS FROM ALL NODES (CUMULATIVE) ==================
|| TAG                                    #calls    cpu time   %total  Gflops ||
|| work_imbalance                       :     1        0.00s   0.000%  ------ ||
|| paw_tcore_hartree_on_grid            :     1        0.00s   0.000%  ------ ||
|| paw_tcore_density                    :     1        0.01s   0.000%  ------ ||
|| paw_sphere_density_on_grid           :     1        0.01s   0.000%  ------ ||
|| sparse_set_to_garbage                :   183        0.03s   0.001%  ------ ||
|| paw_dij_hartree                      :   383        0.05s   0.001%  ------ ||
|| pseudo_make_structure_factor         :     1        0.05s   0.001%  ------ ||
|| basis_extract_function_from_box      :  2048        0.09s   0.002%  ------ ||
|| paw_species_calc_proj_prec_mat       :     1        0.12s   0.003%  ------ ||
|| paw_dataset_init                     :     1        0.15s   0.004%  ------ ||
|| density_init_guess_real              :     1        0.19s   0.004%  ------ ||
|| ngwfs_initialise_from_radial         :     2        0.67s   0.015%  ------ ||
|| restart_kernel_write                 :    17        0.83s   0.019%  ------ ||
|| sparse_init                          :     1        0.95s   0.022%  ------ ||
|| dense_normal_eigensolve              :     1        1.01s   0.023%  ------ ||
|| hartree_on_grid                      :   287        1.93s   0.045%  ------ ||
|| ewald_calculate_energy               :     1        2.62s   0.061%  ------ ||
|| projectors_init_fftbox_recip         :   161        3.15s   0.073%  ------ ||
|| fourier_apply_box_pair               :  3040        5.03s   0.117% 560.265 ||
|| basis_copy_function_to_box           : 27264        5.91s   0.137%  ------ ||
|| augmentation_screen_dij              :   294        6.23s   0.144%  ------ ||
|| sw_init                              :     1        6.73s   0.156%  ------ ||
|| sparse_embed_hotelling_invert_embed  :    31        9.56s   0.221%  ------ ||
|| ngwf_gradient_coeffs                 :    16       12.99s   0.301%  ------ ||
|| cell_grid_extract_box_real           : 11564       15.64s   0.362%  ------ ||
|| sparse_trace                         :  3472       19.59s   0.454%  ------ ||
|| fourier_apply_cell_backward          :  8868       21.24s   0.492%  47.756 ||
|| fourier_apply_cell_forward           :  8295       22.57s   0.523%  42.037 ||
|| cell_grid_deposit_box_real           : 36912       22.60s   0.523%  ------ ||
|| paw_dij_xc                           :   383       25.99s   0.602%  ------ ||
|| aug_nonlocal_mat                     :   367       39.81s   0.922%  ------ ||
|| density_fftbox_deposit_to_cell       : 18368       45.59s   1.056%  ------ ||
|| eigenstates_pdos                     :     1       52.93s   1.226%  ------ ||
|| augmentation_density_on_grid         :   287       56.02s   1.297%  ------ ||
|| eigenstates_calculate                :     1       57.00s   1.320%  ------ ||
|| hamiltonian_energy_components        :     4       66.56s   1.542%  ------ ||
|| function_ops_brappd_ketppd           :    64       67.19s   1.556%  ------ ||
|| projectors_func_ovlp_box             :    32       77.07s   1.785%  ------ ||
|| nlxc_vdw_energy                      :   572       86.29s   1.999%  ------ ||
|| xc_energy_potential                  :   286       90.72s   2.101%  ------ ||
|| properties_calculate                 :     1      102.46s   2.373%  ------ ||
|| dense_eigensolve                     :   251      110.26s   2.554%  ------ ||
|| integrals_kinetic                    :    31      113.28s   2.624%  ------ ||
|| restart_ngwfs_tightbox_output        :    15      140.49s   3.254%  ------ ||
|| potential_apply_to_ngwf_batch        :   364      140.71s   3.259%  ------ ||
|| sparse_product                       :  3495      160.63s   3.720%  ------ ||
|| basis_dot_function_with_box          : 9.120M     252.21s   5.841%  ------ ||
|| edft_diag_ngwf_ham                   :   250      262.99s   6.091%  ------ ||
|| fourier_apply_box                    : 85776      266.77s   6.179% 978.659 ||
|| projectors_gradient_batch            :    64      304.40s   7.050%  ------ ||
|| integrals_locpot_mat_els_batch       :   364      337.00s   7.805%  ------ ||
|| density_fftbox_interpolate_multiply  : 18368      356.59s   8.259%  ------ ||
|| density_batch_interp_deposit         :  1148      444.89s  10.304%  ------ ||
|| projectors_grad_precond_batch        :    64      445.66s  10.322%  ------ ||
|| integrals_locpot_dbl_grid            :    91      479.58s  11.107%  ------ ||
|| edft_apply_smearing_operator         :   250      526.34s  12.190%  ------ ||
|| basis_add_function_to_box            : 25.52M     678.55s  15.716%  ------ ||
|| ngwf_gradient_build_batch            :    64      798.32s  18.490%  ------ ||
|| density_batch_row_sums               :  1148      951.34s  22.034%  ------ ||
|| ngwf_gradient_batch                  :    64     1054.09s  24.413%  ------ ||
|| ngwf_gradient_lnv                    :    16     1086.45s  25.163%  ------ ||
|| density_on_dbl_grid                  :   287     1407.72s  32.604%  ------ ||
|| hamiltonian_lhxc_calculate           :   281     1526.39s  35.352%  ------ ||
|| edft_calculate                       :    16     2515.56s  58.262%  ------ ||
|| ngwf_cg_optimise                     :     1     4188.84s  97.016%  ------ ||
|| total_time                           :     1     4317.66s 100.000%  ------ ||
================================================================================
Overhead of generating timer report: 
- 0 ms averaging over threads,
- 5 ms ensuring consistency across MPI ranks,
- 0 ms printing in order.

Job completed: 26-02-2020 05:16 (-0000)

