 +---------------------------------------------------------------+
 |                                                               |
 |        ####### #     # ####### ####### ####### ######         |
 |        #     # ##    # #          #    #       #     #        |
 |        #     # # #   # #          #    #       #     #        |
 |        #     # #  #  # #####      #    #####   ######         |
 |        #     # #   # # #          #    #       #              |
 |        #     # #    ## #          #    #       #              |
 |        ####### #     # #######    #    ####### #              |
 |                                                               |
 |        Linear-Scaling Ab Initio Total Energy Program          |
 |                                                               |
 |          Release for academic collaborators of ODG            |
 |                                             Version 5.3.2.12  |
 |                                                               |
 +---------------------------------------------------------------+
 |                                                               |
 |  Authors:                                                     |
 |  Jacek Dziedzic, Peter D. Haynes, Nicholas D. M. Hine,        |
 |  Arash. A. Mostofi, Mike C. Payne and Chris-Kriton Skylaris   |
 |                                                               |
 |  Contributors:                                                |
 |  J. Aarons, L. Andrinopoulos, P. W. Avraam, R. A. Bell,       |
 |  A. Bhandari, G. A. Bramley, R. J. Charlton, S. J. Clark,     |
 |  R. J. Clements, G. C. Constantinescu, F. Corsetti,           |
 |  N. Corsini, O. Dieguez, S. M. M. Dubois, K. K. B. Duff,      |
 |  J. M. Escartin, A. Greco, H. Helal, Q. O. Hill, L. P. Lee,   |
 |  J.-H. Li, E. B. Linscott, G. Moynihan, D. D. O`Regan,        |
 |  O. K. Okan, M. J. S. Phipps, C. J. Pickard,                  |
 |  J. C. A. Prentice, M. I. J. Probert, L. E. Ratcliff,         |
 |  M. Robinson, A. Ruiz Serrano, J. S. Spencer, E. W. Tait,     |
 |  G. Teobaldi, D. Turban, V. Vitale, K. A. Wilkinson,          |
 |  C. Weber, J. C. Womack, N. Yeung and T. J. Zuehlsdorff       |
 |                                                               |
 |                                   Copyright (c) 2004-2020     |
 |                                                               |
 |  Please cite:                                                 |
 |  "Introducing ONETEP: Linear-scaling density functional       |
 |   simulations on parallel computers".                         |
 |   C.-K. Skylaris, P. D. Haynes, A. A. Mostofi, M. C. Payne.   |
 |   J. Chem. Phys. 122 084119 (2005).                           |
 |                                                               |
 |          in all publications arising from your use of ONETEP. |
 |                                                               |
 +---------------------------------------------------------------+
 |                                                               |
 |   ONETEP is based on developments described in the following  |
 |   publications:                                               |
 |                                                               |
 |  "Nonorthogonal generalized Wannier function pseudopotential  |
 |   plane-wave method".                                         |
 |   C.-K. Skylaris, A. A. Mostofi, P. D. Haynes, O. Dieguez,    |
 |   M. C. Payne.                                                |
 |   Phys. Rev. B 66 035119 (2002).                              |
 |                                                               |
 |  "Preconditioned iterative minimization for linear-scaling    |
 |   electronic structure calculations".                         |
 |   A. A. Mostofi, P. D. Haynes, C.-K. Skylaris, M. C. Payne.   |
 |   J. Chem. Phys. 119(17), pp.8842-8848 (2003).                |
 |                                                               |
 |  "Total-energy calculations on a real space grid with         |
 |   localized functions and a plane-wave basis".                |
 |   A. A. Mostofi, C.-K. Skylaris, P. D. Haynes, M. C. Payne.   |
 |   Comput. Phys. Commun. 147, pp.788-802 (2002).               |
 |                                                               |
 |  "Accurate kinetic energy evaluation in electronic structure  |
 |   calculations with localized functions on real space grids"  |
 |   C.-K. Skylaris, A. A. Mostofi, P. D. Haynes, C. J. Pickard, |
 |   M. C. Payne.                                                |
 |   Comput. Phys. Commun. 140, pp.315-322 (2001).               |
 |                                                               |
 |  "Accurate ionic forces and geometry optimization in linear-  |
 |   scaling density-functional theory with local orbitals"      |
 |   N. D. M. Hine, M. Robinson, P. D. Haynes, C.-K. Skylaris,   |
 |   M. C. Payne, and A. A. Mostofi.                             |
 |   Phys. Rev. B 83 195102 (2011).                              |
 |                                                               |
 +---------------------------------------------------------------+

Job started: 26-02-2020 04:10 (-0000)
 
Reading parameters from file "3.3003376_GO_manual_4x64graphite.dat" ...

WARNING: "cutoff_energy" not specified, but "psinc_spacing" specified.
         Using the latter to set the KE cutoff energy to  732.32021eV,
         thus *overriding* the default.

... done

If your calculation crashes here, before "Checking processes and threads..."
is displayed, then your stack size is insufficient.
If so, use "ulimit -s unlimited" at runtime.
You can disable this check with "check_stack_size F".

Checking processes and threads...
   Determining the default number of threads...
      No default threads set at compilation time: defaulting to 1.
      OpenMP library call suggests 4 threads.
      Hybrid MPI-OpenMP compilation detected.
      Number of MPI processes > 1.
      OMP_NUM_THREADS environment variable present and
      its value matches the one obtained from the OpenMP library call.
      Using this value as default.
      Default threads: 4
      Default applies to threads_max and threads_num_fftboxes.
      Settings in the input file override this default.
   ... done

   Running with 40 MPI processes.
   There are 10 MPI processes running on the same node as the root process.
   Each MPI process is using: 
               1 threads for simulation cell FFTs.
               1 threads for parallel FFT box operations.
               4 threads for loops over batched FFT box operations.
               4 threads in other parallel regions.
... done

Basic input checks...
Resetting ngwf_cg_rotate to TRUE for EDFT calculations
... done

Reading geometry and species blocks from file "3.3003376_GO_manual_4x64graphite.dat" ...
    
  PSINC grid spacing along a1 set to   0.511215680000a0 from input file.
  PSINC grid spacing along a2 set to   0.531284090000a0 from input file.
  PSINC grid spacing along a3 set to   0.507052600000a0 from input file.
  Number of PPD points along a3 set to 1.  This is 
  the default value, it may have been provided also in the input file.
... done
 Writing xyz coordinates to file "3.3003376_GO_manual_4x64graphite.xyz" ... done


--------------------------------------------------------------------------------
---------------------------------- INPUT FILE ----------------------------------
--------------------------------------------------------------------------------

task : singlepoint                                                              
do_properties : true                                                            
dx_format T                                                                     
edft T                                                                          
output_detail VERBOSE                                                           
write_xyz T                                                                     
xc_functional VDWDF2                                                            
PSINC_SPACING 0.51121568 0.53128409 0.50705260                                  
paw T                                                                           
pdos_max_l = 2                                                                  
dos_smear  0.1 eV                                                               
popn_calculate T                                                                
PDOS_PSEUDOATOMIC T                                                             
PDOS_REDUCE_SWS F                                                               
PDOS_CONSTRUCT_BASIS F                                                          
PDOS_LOWDIN T                                                                   
PDOS_ORTH_ATOM_BLOCKS F                                                         
PDOS_LCAO_OPTIMIZE F                                                            
pdos_optados_output T                                                           
homo_plot 0                                                                     
lumo_plot 0                                                                     
homo_dens_plot -1                                                               
lumo_dens_plot -1                                                               
%BLOCK SPECIES                                                                  
C C 6 4 9.0                                                                     
%ENDBLOCK SPECIES                                                               
%BLOCK SPECIES_POT                                                              
C "~/pp/paw/c_pbe_abinit.paw"                                                   
%ENDBLOCK SPECIES_POT                                                           
%BLOCK SPECIES_ATOMIC_SET                                                       
C "SOLVE conf=2s2 2p2"                                                          
%ENDBLOCK SPECIES_ATOMIC_SET                                                    
%BLOCK LATTICE_CART                                                             
32.21  0.00  0.00                                                               
0.00 18.59  0.00                                                                
0.00  0.00 62.37                                                                
%ENDBLOCK LATTICE_CART                                                          
%BLOCK POSITIONS_ABS                                                            
C  0.00  0.00  3.12                                                             
C  0.00  0.00 15.59                                                             
C  0.00  0.00 28.07                                                             
C  0.00  0.00 40.54                                                             
C  0.00  0.00 53.01                                                             
C  0.00  4.65  3.12                                                             
C  0.00  4.65 15.59                                                             
C  0.00  4.65 28.07                                                             
C  0.00  4.65 40.54                                                             
C  0.00  4.65 53.01                                                             
C  4.03  2.32  3.12                                                             
C  4.03  2.32 15.59                                                             
C  4.03  2.32 28.07                                                             
C  4.03  2.32 40.54                                                             
C  4.03  2.32 53.01                                                             
C  8.05  0.00  3.12                                                             
C  8.05  0.00 15.59                                                             
C  8.05  0.00 28.07                                                             
C  8.05  0.00 40.54                                                             
C  8.05  0.00 53.01                                                             
C  0.00  9.30  3.12                                                             
C  0.00  9.30 15.59                                                             
C  0.00  9.30 28.07                                                             
C  0.00  9.30 40.54                                                             
C  0.00  9.30 53.01                                                             
C  4.03  6.97  3.12                                                             
C  4.03  6.97 15.59                                                             
C  4.03  6.97 28.07                                                             
C  4.03  6.97 40.54                                                             
C  4.03  6.97 53.01                                                             
C  8.05  4.65  3.12                                                             
C  8.05  4.65 15.59                                                             
C  8.05  4.65 28.07                                                             
C  8.05  4.65 40.54                                                             
C  8.05  4.65 53.01                                                             
C 12.08  2.32  3.12                                                             
C 12.08  2.32 15.59                                                             
C 12.08  2.32 28.07                                                             
C 12.08  2.32 40.54                                                             
C 12.08  2.32 53.01                                                             
C 16.10  0.00  3.12                                                             
C 16.10  0.00 15.59                                                             
C 16.10  0.00 28.07                                                             
C 16.10  0.00 40.54                                                             
C 16.10  0.00 53.01                                                             
C  0.00 13.95  3.12                                                             
C  0.00 13.95 15.59                                                             
C  0.00 13.95 28.07                                                             
C  0.00 13.95 40.54                                                             
C  0.00 13.95 53.01                                                             
C  4.03 11.62  3.12                                                             
C  4.03 11.62 15.59                                                             
C  4.03 11.62 28.07                                                             
C  4.03 11.62 40.54                                                             
C  4.03 11.62 53.01                                                             
C  8.05  9.30  3.12                                                             
C  8.05  9.30 15.59                                                             
C  8.05  9.30 28.07                                                             
C  8.05  9.30 40.54                                                             
C  8.05  9.30 53.01                                                             
C 12.08  6.97  3.12                                                             
C 12.08  6.97 15.59                                                             
C 12.08  6.97 28.07                                                             
C 12.08  6.97 40.54                                                             
C 12.08  6.97 53.01                                                             
C 16.10  4.65  3.12                                                             
C 16.10  4.65 15.59                                                             
C 16.10  4.65 28.07                                                             
C 16.10  4.65 40.54                                                             
C 16.10  4.65 53.01                                                             
C 20.13  2.32  3.12                                                             
C 20.13  2.32 15.59                                                             
C 20.13  2.32 28.07                                                             
C 20.13  2.32 40.54                                                             
C 20.13  2.32 53.01                                                             
C 24.16  0.00  3.12                                                             
C 24.16  0.00 15.59                                                             
C 24.16  0.00 28.07                                                             
C 24.16  0.00 40.54                                                             
C 24.16  0.00 53.01                                                             
C  4.03 16.27  3.12                                                             
C  4.03 16.27 15.59                                                             
C  4.03 16.27 28.07                                                             
C  4.03 16.27 40.54                                                             
C  4.03 16.27 53.01                                                             
C  8.05 13.95  3.12                                                             
C  8.05 13.95 15.59                                                             
C  8.05 13.95 28.07                                                             
C  8.05 13.95 40.54                                                             
C  8.05 13.95 53.01                                                             
C 12.08 11.62  3.12                                                             
C 12.08 11.62 15.59                                                             
C 12.08 11.62 28.07                                                             
C 12.08 11.62 40.54                                                             
C 12.08 11.62 53.01                                                             
C 16.10  9.30  3.12                                                             
C 16.10  9.30 15.59                                                             
C 16.10  9.30 28.07                                                             
C 16.10  9.30 40.54                                                             
C 16.10  9.30 53.01                                                             
C 20.13  6.97  3.12                                                             
C 20.13  6.97 15.59                                                             
C 20.13  6.97 28.07                                                             
C 20.13  6.97 40.54                                                             
C 20.13  6.97 53.01                                                             
C 24.16  4.65  3.12                                                             
C 24.16  4.65 15.59                                                             
C 24.16  4.65 28.07                                                             
C 24.16  4.65 40.54                                                             
C 24.16  4.65 53.01                                                             
C 28.18  2.32  3.12                                                             
C 28.18  2.32 15.59                                                             
C 28.18  2.32 28.07                                                             
C 28.18  2.32 40.54                                                             
C 28.18  2.32 53.01                                                             
C 12.08 16.27  3.12                                                             
C 12.08 16.27 15.59                                                             
C 12.08 16.27 28.07                                                             
C 12.08 16.27 40.54                                                             
C 12.08 16.27 53.01                                                             
C 16.10 13.95  3.12                                                             
C 16.10 13.95 15.59                                                             
C 16.10 13.95 28.07                                                             
C 16.10 13.95 40.54                                                             
C 16.10 13.95 53.01                                                             
C 20.13 11.62  3.12                                                             
C 20.13 11.62 15.59                                                             
C 20.13 11.62 28.07                                                             
C 20.13 11.62 40.54                                                             
C 20.13 11.62 53.01                                                             
C 24.16  9.30  3.12                                                             
C 24.16  9.30 15.59                                                             
C 24.16  9.30 28.07                                                             
C 24.16  9.30 40.54                                                             
C 24.16  9.30 53.01                                                             
C 28.18  6.97  3.12                                                             
C 28.18  6.97 15.59                                                             
C 28.18  6.97 28.07                                                             
C 28.18  6.97 40.54                                                             
C 28.18  6.97 53.01                                                             
C 20.13 16.27  3.12                                                             
C 20.13 16.27 15.59                                                             
C 20.13 16.27 28.07                                                             
C 20.13 16.27 40.54                                                             
C 20.13 16.27 53.01                                                             
C 24.16 13.95  3.12                                                             
C 24.16 13.95 15.59                                                             
C 24.16 13.95 28.07                                                             
C 24.16 13.95 40.54                                                             
C 24.16 13.95 53.01                                                             
C 28.18 11.62  3.12                                                             
C 28.18 11.62 15.59                                                             
C 28.18 11.62 28.07                                                             
C 28.18 11.62 40.54                                                             
C 28.18 11.62 53.01                                                             
C 28.18 16.27  3.12                                                             
C 28.18 16.27 15.59                                                             
C 28.18 16.27 28.07                                                             
C 28.18 16.27 40.54                                                             
C 28.18 16.27 53.01                                                             
C  0.00  0.00  9.36                                                             
C  0.00  0.00 21.83                                                             
C  0.00  0.00 34.30                                                             
C  0.00  0.00 46.78                                                             
C  0.00  0.00 59.25                                                             
C  0.00  4.65  9.36                                                             
C  0.00  4.65 21.83                                                             
C  0.00  4.65 34.30                                                             
C  0.00  4.65 46.78                                                             
C  0.00  4.65 59.25                                                             
C  4.03  2.32  9.36                                                             
C  4.03  2.32 21.83                                                             
C  4.03  2.32 34.30                                                             
C  4.03  2.32 46.78                                                             
C  4.03  2.32 59.25                                                             
C  8.05  0.00  9.36                                                             
C  8.05  0.00 21.83                                                             
C  8.05  0.00 34.30                                                             
C  8.05  0.00 46.78                                                             
C  8.05  0.00 59.25                                                             
C  0.00  9.30  9.36                                                             
C  0.00  9.30 21.83                                                             
C  0.00  9.30 34.30                                                             
C  0.00  9.30 46.78                                                             
C  0.00  9.30 59.25                                                             
C  4.03  6.97  9.36                                                             
C  4.03  6.97 21.83                                                             
C  4.03  6.97 34.30                                                             
C  4.03  6.97 46.78                                                             
C  4.03  6.97 59.25                                                             
C  8.05  4.65  9.36                                                             
C  8.05  4.65 21.83                                                             
C  8.05  4.65 34.30                                                             
C  8.05  4.65 46.78                                                             
C  8.05  4.65 59.25                                                             
C 12.08  2.32  9.36                                                             
C 12.08  2.32 21.83                                                             
C 12.08  2.32 34.30                                                             
C 12.08  2.32 46.78                                                             
C 12.08  2.32 59.25                                                             
C 16.10  0.00  9.36                                                             
C 16.10  0.00 21.83                                                             
C 16.10  0.00 34.30                                                             
C 16.10  0.00 46.78                                                             
C 16.10  0.00 59.25                                                             
C  0.00 13.95  9.36                                                             
C  0.00 13.95 21.83                                                             
C  0.00 13.95 34.30                                                             
C  0.00 13.95 46.78                                                             
C  0.00 13.95 59.25                                                             
C  4.03 11.62  9.36                                                             
C  4.03 11.62 21.83                                                             
C  4.03 11.62 34.30                                                             
C  4.03 11.62 46.78                                                             
C  4.03 11.62 59.25                                                             
C  8.05  9.30  9.36                                                             
C  8.05  9.30 21.83                                                             
C  8.05  9.30 34.30                                                             
C  8.05  9.30 46.78                                                             
C  8.05  9.30 59.25                                                             
C 12.08  6.97  9.36                                                             
C 12.08  6.97 21.83                                                             
C 12.08  6.97 34.30                                                             
C 12.08  6.97 46.78                                                             
C 12.08  6.97 59.25                                                             
C 16.10  4.65  9.36                                                             
C 16.10  4.65 21.83                                                             
C 16.10  4.65 34.30                                                             
C 16.10  4.65 46.78                                                             
C 16.10  4.65 59.25                                                             
C 20.13  2.32  9.36                                                             
C 20.13  2.32 21.83                                                             
C 20.13  2.32 34.30                                                             
C 20.13  2.32 46.78                                                             
C 20.13  2.32 59.25                                                             
C 24.16  0.00  9.36                                                             
C 24.16  0.00 21.83                                                             
C 24.16  0.00 34.30                                                             
C 24.16  0.00 46.78                                                             
C 24.16  0.00 59.25                                                             
C  4.03 16.27  9.36                                                             
C  4.03 16.27 21.83                                                             
C  4.03 16.27 34.30                                                             
C  4.03 16.27 46.78                                                             
C  4.03 16.27 59.25                                                             
C  8.05 13.95  9.36                                                             
C  8.05 13.95 21.83                                                             
C  8.05 13.95 34.30                                                             
C  8.05 13.95 46.78                                                             
C  8.05 13.95 59.25                                                             
C 12.08 11.62  9.36                                                             
C 12.08 11.62 21.83                                                             
C 12.08 11.62 34.30                                                             
C 12.08 11.62 46.78                                                             
C 12.08 11.62 59.25                                                             
C 16.10  9.30  9.36                                                             
C 16.10  9.30 21.83                                                             
C 16.10  9.30 34.30                                                             
C 16.10  9.30 46.78                                                             
C 16.10  9.30 59.25                                                             
C 20.13  6.97  9.36                                                             
C 20.13  6.97 21.83                                                             
C 20.13  6.97 34.30                                                             
C 20.13  6.97 46.78                                                             
C 20.13  6.97 59.25                                                             
C 24.16  4.65  9.36                                                             
C 24.16  4.65 21.83                                                             
C 24.16  4.65 34.30                                                             
C 24.16  4.65 46.78                                                             
C 24.16  4.65 59.25                                                             
C 28.18  2.32  9.36                                                             
C 28.18  2.32 21.83                                                             
C 28.18  2.32 34.30                                                             
C 28.18  2.32 46.78                                                             
C 28.18  2.32 59.25                                                             
C 12.08 16.27  9.36                                                             
C 12.08 16.27 21.83                                                             
C 12.08 16.27 34.30                                                             
C 12.08 16.27 46.78                                                             
C 12.08 16.27 59.25                                                             
C 16.10 13.95  9.36                                                             
C 16.10 13.95 21.83                                                             
C 16.10 13.95 34.30                                                             
C 16.10 13.95 46.78                                                             
C 16.10 13.95 59.25                                                             
C 20.13 11.62  9.36                                                             
C 20.13 11.62 21.83                                                             
C 20.13 11.62 34.30                                                             
C 20.13 11.62 46.78                                                             
C 20.13 11.62 59.25                                                             
C 24.16  9.30  9.36                                                             
C 24.16  9.30 21.83                                                             
C 24.16  9.30 34.30                                                             
C 24.16  9.30 46.78                                                             
C 24.16  9.30 59.25                                                             
C 28.18  6.97  9.36                                                             
C 28.18  6.97 21.83                                                             
C 28.18  6.97 34.30                                                             
C 28.18  6.97 46.78                                                             
C 28.18  6.97 59.25                                                             
C 20.13 16.27  9.36                                                             
C 20.13 16.27 21.83                                                             
C 20.13 16.27 34.30                                                             
C 20.13 16.27 46.78                                                             
C 20.13 16.27 59.25                                                             
C 24.16 13.95  9.36                                                             
C 24.16 13.95 21.83                                                             
C 24.16 13.95 34.30                                                             
C 24.16 13.95 46.78                                                             
C 24.16 13.95 59.25                                                             
C 28.18 11.62  9.36                                                             
C 28.18 11.62 21.83                                                             
C 28.18 11.62 34.30                                                             
C 28.18 11.62 46.78                                                             
C 28.18 11.62 59.25                                                             
C 28.18 16.27  9.36                                                             
C 28.18 16.27 21.83                                                             
C 28.18 16.27 34.30                                                             
C 28.18 16.27 46.78                                                             
C 28.18 16.27 59.25                                                             
C  1.34  2.32  3.12                                                             
C  1.34  2.32 15.59                                                             
C  1.34  2.32 28.07                                                             
C  1.34  2.32 40.54                                                             
C  1.34  2.32 53.01                                                             
C  5.37  0.00  3.12                                                             
C  5.37  0.00 15.59                                                             
C  5.37  0.00 28.07                                                             
C  5.37  0.00 40.54                                                             
C  5.37  0.00 53.01                                                             
C  1.34  6.97  3.12                                                             
C  1.34  6.97 15.59                                                             
C  1.34  6.97 28.07                                                             
C  1.34  6.97 40.54                                                             
C  1.34  6.97 53.01                                                             
C  5.37  4.65  3.12                                                             
C  5.37  4.65 15.59                                                             
C  5.37  4.65 28.07                                                             
C  5.37  4.65 40.54                                                             
C  5.37  4.65 53.01                                                             
C  9.39  2.32  3.12                                                             
C  9.39  2.32 15.59                                                             
C  9.39  2.32 28.07                                                             
C  9.39  2.32 40.54                                                             
C  9.39  2.32 53.01                                                             
C 13.42  0.00  3.12                                                             
C 13.42  0.00 15.59                                                             
C 13.42  0.00 28.07                                                             
C 13.42  0.00 40.54                                                             
C 13.42  0.00 53.01                                                             
C  1.34 11.62  3.12                                                             
C  1.34 11.62 15.59                                                             
C  1.34 11.62 28.07                                                             
C  1.34 11.62 40.54                                                             
C  1.34 11.62 53.01                                                             
C  5.37  9.30  3.12                                                             
C  5.37  9.30 15.59                                                             
C  5.37  9.30 28.07                                                             
C  5.37  9.30 40.54                                                             
C  5.37  9.30 53.01                                                             
C  9.39  6.97  3.12                                                             
C  9.39  6.97 15.59                                                             
C  9.39  6.97 28.07                                                             
C  9.39  6.97 40.54                                                             
C  9.39  6.97 53.01                                                             
C 13.42  4.65  3.12                                                             
C 13.42  4.65 15.59                                                             
C 13.42  4.65 28.07                                                             
C 13.42  4.65 40.54                                                             
C 13.42  4.65 53.01                                                             
C 17.45  2.32  3.12                                                             
C 17.45  2.32 15.59                                                             
C 17.45  2.32 28.07                                                             
C 17.45  2.32 40.54                                                             
C 17.45  2.32 53.01                                                             
C 21.47  0.00  3.12                                                             
C 21.47  0.00 15.59                                                             
C 21.47  0.00 28.07                                                             
C 21.47  0.00 40.54                                                             
C 21.47  0.00 53.01                                                             
C  1.34 16.27  3.12                                                             
C  1.34 16.27 15.59                                                             
C  1.34 16.27 28.07                                                             
C  1.34 16.27 40.54                                                             
C  1.34 16.27 53.01                                                             
C  5.37 13.95  3.12                                                             
C  5.37 13.95 15.59                                                             
C  5.37 13.95 28.07                                                             
C  5.37 13.95 40.54                                                             
C  5.37 13.95 53.01                                                             
C  9.39 11.62  3.12                                                             
C  9.39 11.62 15.59                                                             
C  9.39 11.62 28.07                                                             
C  9.39 11.62 40.54                                                             
C  9.39 11.62 53.01                                                             
C 13.42  9.30  3.12                                                             
C 13.42  9.30 15.59                                                             
C 13.42  9.30 28.07                                                             
C 13.42  9.30 40.54                                                             
C 13.42  9.30 53.01                                                             
C 17.45  6.97  3.12                                                             
C 17.45  6.97 15.59                                                             
C 17.45  6.97 28.07                                                             
C 17.45  6.97 40.54                                                             
C 17.45  6.97 53.01                                                             
C 21.47  4.65  3.12                                                             
C 21.47  4.65 15.59                                                             
C 21.47  4.65 28.07                                                             
C 21.47  4.65 40.54                                                             
C 21.47  4.65 53.01                                                             
C 25.50  2.32  3.12                                                             
C 25.50  2.32 15.59                                                             
C 25.50  2.32 28.07                                                             
C 25.50  2.32 40.54                                                             
C 25.50  2.32 53.01                                                             
C 29.52  0.00  3.12                                                             
C 29.52  0.00 15.59                                                             
C 29.52  0.00 28.07                                                             
C 29.52  0.00 40.54                                                             
C 29.52  0.00 53.01                                                             
C  9.39 16.27  3.12                                                             
C  9.39 16.27 15.59                                                             
C  9.39 16.27 28.07                                                             
C  9.39 16.27 40.54                                                             
C  9.39 16.27 53.01                                                             
C 13.42 13.95  3.12                                                             
C 13.42 13.95 15.59                                                             
C 13.42 13.95 28.07                                                             
C 13.42 13.95 40.54                                                             
C 13.42 13.95 53.01                                                             
C 17.45 11.62  3.12                                                             
C 17.45 11.62 15.59                                                             
C 17.45 11.62 28.07                                                             
C 17.45 11.62 40.54                                                             
C 17.45 11.62 53.01                                                             
C 21.47  9.30  3.12                                                             
C 21.47  9.30 15.59                                                             
C 21.47  9.30 28.07                                                             
C 21.47  9.30 40.54                                                             
C 21.47  9.30 53.01                                                             
C 25.50  6.97  3.12                                                             
C 25.50  6.97 15.59                                                             
C 25.50  6.97 28.07                                                             
C 25.50  6.97 40.54                                                             
C 25.50  6.97 53.01                                                             
C 29.52  4.65  3.12                                                             
C 29.52  4.65 15.59                                                             
C 29.52  4.65 28.07                                                             
C 29.52  4.65 40.54                                                             
C 29.52  4.65 53.01                                                             
C 17.45 16.27  3.12                                                             
C 17.45 16.27 15.59                                                             
C 17.45 16.27 28.07                                                             
C 17.45 16.27 40.54                                                             
C 17.45 16.27 53.01                                                             
C 21.47 13.95  3.12                                                             
C 21.47 13.95 15.59                                                             
C 21.47 13.95 28.07                                                             
C 21.47 13.95 40.54                                                             
C 21.47 13.95 53.01                                                             
C 25.50 11.62  3.12                                                             
C 25.50 11.62 15.59                                                             
C 25.50 11.62 28.07                                                             
C 25.50 11.62 40.54                                                             
C 25.50 11.62 53.01                                                             
C 29.52  9.30  3.12                                                             
C 29.52  9.30 15.59                                                             
C 29.52  9.30 28.07                                                             
C 29.52  9.30 40.54                                                             
C 29.52  9.30 53.01                                                             
C 25.50 16.27  3.12                                                             
C 25.50 16.27 15.59                                                             
C 25.50 16.27 28.07                                                             
C 25.50 16.27 40.54                                                             
C 25.50 16.27 53.01                                                             
C 29.52 13.95  3.12                                                             
C 29.52 13.95 15.59                                                             
C 29.52 13.95 28.07                                                             
C 29.52 13.95 40.54                                                             
C 29.52 13.95 53.01                                                             
C  2.68  0.00  9.36                                                             
C  2.68  0.00 21.83                                                             
C  2.68  0.00 34.30                                                             
C  2.68  0.00 46.78                                                             
C  2.68  0.00 59.25                                                             
C  2.68  4.65  9.36                                                             
C  2.68  4.65 21.83                                                             
C  2.68  4.65 34.30                                                             
C  2.68  4.65 46.78                                                             
C  2.68  4.65 59.25                                                             
C  6.71  2.32  9.36                                                             
C  6.71  2.32 21.83                                                             
C  6.71  2.32 34.30                                                             
C  6.71  2.32 46.78                                                             
C  6.71  2.32 59.25                                                             
C 10.74  0.00  9.36                                                             
C 10.74  0.00 21.83                                                             
C 10.74  0.00 34.30                                                             
C 10.74  0.00 46.78                                                             
C 10.74  0.00 59.25                                                             
C  2.68  9.30  9.36                                                             
C  2.68  9.30 21.83                                                             
C  2.68  9.30 34.30                                                             
C  2.68  9.30 46.78                                                             
C  2.68  9.30 59.25                                                             
C  6.71  6.97  9.36                                                             
C  6.71  6.97 21.83                                                             
C  6.71  6.97 34.30                                                             
C  6.71  6.97 46.78                                                             
C  6.71  6.97 59.25                                                             
C 10.74  4.65  9.36                                                             
C 10.74  4.65 21.83                                                             
C 10.74  4.65 34.30                                                             
C 10.74  4.65 46.78                                                             
C 10.74  4.65 59.25                                                             
C 14.76  2.32  9.36                                                             
C 14.76  2.32 21.83                                                             
C 14.76  2.32 34.30                                                             
C 14.76  2.32 46.78                                                             
C 14.76  2.32 59.25                                                             
C 18.79  0.00  9.36                                                             
C 18.79  0.00 21.83                                                             
C 18.79  0.00 34.30                                                             
C 18.79  0.00 46.78                                                             
C 18.79  0.00 59.25                                                             
C  2.68 13.95  9.36                                                             
C  2.68 13.95 21.83                                                             
C  2.68 13.95 34.30                                                             
C  2.68 13.95 46.78                                                             
C  2.68 13.95 59.25                                                             
C  6.71 11.62  9.36                                                             
C  6.71 11.62 21.83                                                             
C  6.71 11.62 34.30                                                             
C  6.71 11.62 46.78                                                             
C  6.71 11.62 59.25                                                             
C 10.74  9.30  9.36                                                             
C 10.74  9.30 21.83                                                             
C 10.74  9.30 34.30                                                             
C 10.74  9.30 46.78                                                             
C 10.74  9.30 59.25                                                             
C 14.76  6.97  9.36                                                             
C 14.76  6.97 21.83                                                             
C 14.76  6.97 34.30                                                             
C 14.76  6.97 46.78                                                             
C 14.76  6.97 59.25                                                             
C 18.79  4.65  9.36                                                             
C 18.79  4.65 21.83                                                             
C 18.79  4.65 34.30                                                             
C 18.79  4.65 46.78                                                             
C 18.79  4.65 59.25                                                             
C 22.81  2.32  9.36                                                             
C 22.81  2.32 21.83                                                             
C 22.81  2.32 34.30                                                             
C 22.81  2.32 46.78                                                             
C 22.81  2.32 59.25                                                             
C 26.84  0.00  9.36                                                             
C 26.84  0.00 21.83                                                             
C 26.84  0.00 34.30                                                             
C 26.84  0.00 46.78                                                             
C 26.84  0.00 59.25                                                             
C  6.71 16.27  9.36                                                             
C  6.71 16.27 21.83                                                             
C  6.71 16.27 34.30                                                             
C  6.71 16.27 46.78                                                             
C  6.71 16.27 59.25                                                             
C 10.74 13.95  9.36                                                             
C 10.74 13.95 21.83                                                             
C 10.74 13.95 34.30                                                             
C 10.74 13.95 46.78                                                             
C 10.74 13.95 59.25                                                             
C 14.76 11.62  9.36                                                             
C 14.76 11.62 21.83                                                             
C 14.76 11.62 34.30                                                             
C 14.76 11.62 46.78                                                             
C 14.76 11.62 59.25                                                             
C 18.79  9.30  9.36                                                             
C 18.79  9.30 21.83                                                             
C 18.79  9.30 34.30                                                             
C 18.79  9.30 46.78                                                             
C 18.79  9.30 59.25                                                             
C 22.81  6.97  9.36                                                             
C 22.81  6.97 21.83                                                             
C 22.81  6.97 34.30                                                             
C 22.81  6.97 46.78                                                             
C 22.81  6.97 59.25                                                             
C 26.84  4.65  9.36                                                             
C 26.84  4.65 21.83                                                             
C 26.84  4.65 34.30                                                             
C 26.84  4.65 46.78                                                             
C 26.84  4.65 59.25                                                             
C 30.86  2.32  9.36                                                             
C 30.86  2.32 21.83                                                             
C 30.86  2.32 34.30                                                             
C 30.86  2.32 46.78                                                             
C 30.86  2.32 59.25                                                             
C 14.76 16.27  9.36                                                             
C 14.76 16.27 21.83                                                             
C 14.76 16.27 34.30                                                             
C 14.76 16.27 46.78                                                             
C 14.76 16.27 59.25                                                             
C 18.79 13.95  9.36                                                             
C 18.79 13.95 21.83                                                             
C 18.79 13.95 34.30                                                             
C 18.79 13.95 46.78                                                             
C 18.79 13.95 59.25                                                             
C 22.81 11.62  9.36                                                             
C 22.81 11.62 21.83                                                             
C 22.81 11.62 34.30                                                             
C 22.81 11.62 46.78                                                             
C 22.81 11.62 59.25                                                             
C 26.84  9.30  9.36                                                             
C 26.84  9.30 21.83                                                             
C 26.84  9.30 34.30                                                             
C 26.84  9.30 46.78                                                             
C 26.84  9.30 59.25                                                             
C 30.86  6.97  9.36                                                             
C 30.86  6.97 21.83                                                             
C 30.86  6.97 34.30                                                             
C 30.86  6.97 46.78                                                             
C 30.86  6.97 59.25                                                             
C 22.81 16.27  9.36                                                             
C 22.81 16.27 21.83                                                             
C 22.81 16.27 34.30                                                             
C 22.81 16.27 46.78                                                             
C 22.81 16.27 59.25                                                             
C 26.84 13.95  9.36                                                             
C 26.84 13.95 21.83                                                             
C 26.84 13.95 34.30                                                             
C 26.84 13.95 46.78                                                             
C 26.84 13.95 59.25                                                             
C 30.86 11.62  9.36                                                             
C 30.86 11.62 21.83                                                             
C 30.86 11.62 34.30                                                             
C 30.86 11.62 46.78                                                             
C 30.86 11.62 59.25                                                             
C 30.86 16.27  9.36                                                             
C 30.86 16.27 21.83                                                             
C 30.86 16.27 34.30                                                             
C 30.86 16.27 46.78                                                             
C 30.86 16.27 59.25                                                             
%ENDBLOCK POSITIONS_ABS                                                         

--------------------------------------------------------------------------------
-------------------------------- END INPUT FILE --------------------------------
--------------------------------------------------------------------------------


 
<<<<<<<<<<<<<<<<<<<<<<<<<<<<<<<<< Full system >>>>>>>>>>>>>>>>>>>>>>>>>>>>>>>>>>
<<<<<<<<<<<<<<<<<<<<<<<<<<< PAW Dataset information >>>>>>>>>>>>>>>>>>>>>>>>>>>
File: ~/pp/paw/c_pbe_abinit.paw; rc = 1.25 bohr; shape type =  3; rshape = 1.25 bohr;
  Atomic number:  6;  ionic charge:  4.000000
    Partial Wave 1: l = 0
    Partial Wave 2: l = 0
    Partial Wave 3: l = 1
    Partial Wave 4: l = 1
  Core charge supplied for Nonlinear Core Corrections
<<<<<<<<<<<<<<<<<<<<<<<<<<<<<<<<<<<<<<< >>>>>>>>>>>>>>>>>>>>>>>>>>>>>>>>>>>>>>>

-------------------------- Atom counting information ---------------------------
Symbol    Natoms    Nngwfs    Nprojs
  C        640      2560      5120
.......   ......    ......    ......
Totals:    640      2560      5120
--------------------------------------------------------------------------------

=============================== PSINC grid sizes ===============================
                      Simulation cell:   63 x  35 x 123
                              FFT-box:   63 x  35 x 117
                                  PPD:    7 x   5 x   1
Grid space d1=  0.511269841270a0 (KE cutoff=  29.06054Eh = 790.77748eV)
Grid space d2=  0.531142857143a0 (KE cutoff=  26.92659Eh = 732.70972eV)
Grid space d3=  0.507073170732a0 (KE cutoff=  29.54355Eh = 803.92101eV)
================================================================================
  
WARNING in cell_grid_distribute:
Average of less than one 23-slab per node, so workload cannot be
equally balanced between nodes.

********************* Fourier parallelisation information **********************
       Coarse grid (whole simulation cell) dimensions:     63    35   123
          Real-space ('12') slabs/node (min max mean):      3     4     3
         Recip-space ('23') slabs/node (min max mean):      0     1     0
********************************************************************************

********************* Fourier parallelisation information **********************
       Double grid (whole simulation cell) dimensions:    126    70   246
          Real-space ('12') slabs/node (min max mean):      6     7     6
         Recip-space ('23') slabs/node (min max mean):      1     2     1
********************************************************************************

Atom SCF Calculation for C  : Z (AE atom) =   6 : Z (PS atom) =   4
Config String: 2s2 2p2
Orbitals (num,occ):  2     2.00 2.00
Orbitals   (num,l):  2        0    1
Real-space Grid (nr,dr,rmax): 1293    0.0069659443    9.0000000000
Spherical Bessel Basis (nsws,lmax,cutoff):   37    2  161.4736382572
Confining potential (l,width,scale):  0    3.0000000000  100.0000000000
Confining potential (l,width,scale):  1    3.0000000000  100.0000000000
  1         -5.4691149987   -1.3647045835    4.5135257941   -1.6713568800
  2         -5.5214542834   -1.4154291535    4.4635199061   -1.6585170582
  3         -5.5221055910   -1.4439161209    4.4342087028   -1.6520281659
  4         -5.5287901521   -1.4522301802    4.4259176063   -1.6507873939
  5         -5.5308251003   -1.4557840400    4.4224142384   -1.6502632738
  6         -5.5317252094   -1.4571386008    4.4211068249   -1.6500892907
  7         -5.5320765973   -1.4576738924    4.4205997642   -1.6500256779
  8         -5.5322192721   -1.4578833190    4.4204056023   -1.6500032912
  9         -5.5322765240   -1.4579657561    4.4203308649   -1.6499954152
 10         -5.5322995843   -1.4579982639    4.4203020904   -1.6499927055
 11         -5.5323088576   -1.4580111317    4.4202909828   -1.6499917962
 12         -5.5323125859   -1.4580162439    4.4202866844   -1.6499915030
 13         -5.5323140836   -1.4580182832    4.4202850159   -1.6499914143
 14         -5.5323146847   -1.4580191002    4.4202843659   -1.6499913905
 15         -5.5323149258   -1.4580194290    4.4202841117   -1.6499913858
 16         -5.5323150224   -1.4580195619    4.4202840119   -1.6499913859
Atom SCF converged after  16 iterations to a total energy of     -5.53231502

Determining parallel strategy ...
... using space-filling curve
... NGWF load balancing: max     64;  min     64;  average     64
... Projector load balancing: max    128;  min    128;  average    128
... done
Calculating Ewald energy ...
              Ewald: real-space energy =    9509.243353
        Ewald: reciprocal-space energy =       0.067800
         Ewald: (sum_charge)**2 Energy =   11375.609033
         Ewald: (sum_charge**2) Energy =     899.320858
                          Ewald Energy =   -2765.618738
Basis initialisation ...... NGWF spheres initialised
... Projector spheres initialised
... NGWF tight boxes initialised
... Projector tight boxes initialised
... Tight-boxes gathered
... NGWF basis size (local,global):     693716  27896960
... PAW projector initialisation
... done

============================= Charge Augmentation ==============================
                           Aug box size:   11 x  11 x  11
================================================================================

========================== Sparse matrix information ===========================
                        Overlap matrix filling:  44.38%
                        Density kernel filling: 100.00%
              NGWF-Proj overlap matrix filling:  13.12%
                    Aug Overlap matrix filling:  47.81%
                    Hamiltonian matrix filling:  47.81%
                  NGWF diagonal matrix filling:   0.16%
                             KS matrix filling: 100.00% 
                           KSKS matrix filling: 100.00% 
================================================================================

Sparse matrix initialisation ... done
NGWF initialisation ...... done
============ Calculation of NGWF S^-1 using Hotelling algorithm ================ 
         Iteration  |  Frobenius norm and Maximum abs value    (of I-S*S_n^-1)   
               1       0.49173241E+02     0.97745611E+00
               2       0.48021314E+02     0.95669869E+00
               3       0.46267710E+02     0.91959653E+00
               4       0.43956538E+02     0.85837317E+00
               5       0.41161067E+02     0.76696531E+00
               6       0.37861256E+02     0.68651465E+00
               7       0.34332933E+02     0.63698569E+00
               8       0.30937151E+02     0.59546992E+00
               9       0.27385619E+02     0.55229728E+00
              10       0.22963015E+02     0.48655122E+00
              11       0.17196094E+02     0.38114411E+00
              12       0.10441834E+02     0.23856339E+00
              13       0.43806678E+01     0.98918035E-01
              14       0.91857308E+00     0.19265886E-01
              15       0.47658827E-01     0.88590167E-03
              16       0.15812100E-03     0.23489903E-05
              17       0.25639493E-08     0.24133362E-10
              18       0.78526607E-13     0.35527137E-14
================================================================================
Calculating core density ...
================================= Core Density =================================
               Core den box size:   21 x  21 x  21
================================================================================
 ... done
Up spin density kernel initialisation ...... done

Writing density kernel to file "3.3003376_GO_manual_4x64graphite.dkn" ... done

>>> Optimising kernel for current NGWFs:

--------------------------- Ensemble-DFT optimisation --------------------------
Running ScaLAPACK on   40 processor(s).

--------------------------------------------------------------------------------
  Iter                              Commutator    Free_energy(A=E-TS)     DeltaA
#    0                          0.000046828472   -3682.21493621128366  -3.68E+03

Step                       =       0.381966011250
Energy                     =   -3682.214893120086
Entropy (-TS)              =      -0.000043091390
Free energy (A=E-TS)       =   -3682.214936211284
Est. 0K Energy 0.5*(E+A)   =   -3682.214914665685
Residual Non-orthogonality =       0.000000000000
Residual N_electrons       =       0.000000000193

Spin          Integrated_Ne            Fermi_level     Delta_Fermi_level
   1      2559.999999999101         0.214610396149              2.15E-01

                           Spin 1          
     Orb      H-eigenvalues     Occupancies
       1 |    -0.5019556957    1.0000000000 | 
                          ------
    1276 |     0.1818513982    0.9999678310 | 
    1277 |     0.1824560670    0.9999610633 | 
    1278 |     0.1824673742    0.9999609240 | 
    1279 |     0.1829476208    0.9999545255 | 
    1280 |     0.1835561559    0.9999448916 | 
                 - Gap at zero temperature -
    1281 |     0.2481842737    0.0000248708 | 
    1282 |     0.2481890558    0.0000248332 | 
    1283 |     0.2482483964    0.0000243723 | 
    1284 |     0.2484176211    0.0000231041 | 
    1285 |     0.2484224122    0.0000230692 | 
                          ------
    2560 |     1.0346521182    0.0000000000 | 

                       |  Abs_value |  Threshold | Converged
     Delta_Free_energy |   3.68E+03 |   1.00E-06 |        No
     Delta_Energy      |   3.68E+03 |   1.00E-04 |        No
     Delta_Entropy     |   4.31E-05 |   1.00E-04 |       Yes
     Commutator        |   4.68E-05 |   1.00E-05 |        No
     Delta_Fermi_level |   2.15E-01 |   1.00E-03 |        No

  Line search of the free energy minimum:
  Step_type        Step             Free_energy   Predicted_free_energy
.   Initial    0.000000    -3682.21493621128366
.    Trial1    0.381966    -3682.21714955703328
.    Trial2    0.618034    -3682.21736994005732
. Quadratic    0.559346    -3682.21739626656017    -3682.21739703038429

--------------------------------------------------------------------------------
  Iter                              Commutator    Free_energy(A=E-TS)     DeltaA
#    1                          0.000025609244   -3682.21739626656017  -2.46E-03

Step                       =       0.559346172627
Energy                     =   -3682.217355586539
Entropy (-TS)              =      -0.000040680452
Free energy (A=E-TS)       =   -3682.217396266560
Est. 0K Energy 0.5*(E+A)   =   -3682.217375926550
Residual Non-orthogonality =       0.000000000000
Residual N_electrons       =       0.000000000431

Spin          Integrated_Ne            Fermi_level     Delta_Fermi_level
   1      2559.999999998022         0.217754473070              3.14E-03

                           Spin 1          
     Orb      H-eigenvalues     Occupancies
       1 |    -0.5006939295    1.0000000000 | 
                          ------
    1276 |     0.1848843814    0.9999689399 | 
    1277 |     0.1853424580    0.9999641060 | 
    1278 |     0.1853451653    0.9999640753 | 
    1279 |     0.1860049238    0.9999557546 | 
    1280 |     0.1864584218    0.9999489427 | 
                 - Gap at zero temperature -
    1281 |     0.2514857019    0.0000236652 | 
    1282 |     0.2514931157    0.0000236099 | 
    1283 |     0.2515720259    0.0000230289 | 
    1284 |     0.2517907376    0.0000214921 | 
    1285 |     0.2518220817    0.0000212805 | 
                          ------
    2560 |     1.0390711157    0.0000000000 | 

                       |  Abs_value |  Threshold | Converged
     Delta_Free_energy |   2.46E-03 |   1.00E-06 |        No
     Delta_Energy      |   2.46E-03 |   1.00E-04 |        No
     Delta_Entropy     |   2.41E-06 |   1.00E-04 |       Yes
     Commutator        |   2.56E-05 |   1.00E-05 |        No
     Delta_Fermi_level |   3.14E-03 |   1.00E-03 |        No

  Line search of the free energy minimum:
  Step_type        Step             Free_energy   Predicted_free_energy
.   Initial    0.000000    -3682.21739626656017
.    Trial1    0.559346    -3682.21725391460450
.    Trial2    0.213651    -3682.21794083907525
. Quadratic    0.263982    -3682.21796105348676    -3682.21796138142190

--------------------------------------------------------------------------------
  Iter                              Commutator    Free_energy(A=E-TS)     DeltaA
#    2                          0.000015040475   -3682.21796105348676  -5.65E-04

Step                       =       0.263981623437
Energy                     =   -3682.217920943772
Entropy (-TS)              =      -0.000040110225
Free energy (A=E-TS)       =   -3682.217961053487
Est. 0K Energy 0.5*(E+A)   =   -3682.217940998629
Residual Non-orthogonality =       0.000000000000
Residual N_electrons       =       0.000000000510

Spin          Integrated_Ne            Fermi_level     Delta_Fermi_level
   1      2559.999999997665         0.218388306746              6.34E-04

                           Spin 1          
     Orb      H-eigenvalues     Occupancies
       1 |    -0.5004357590    1.0000000000 | 
                          ------
    1276 |     0.1854408669    0.9999696893 | 
    1277 |     0.1859532132    0.9999643666 | 
    1278 |     0.1859558366    0.9999643371 | 
    1279 |     0.1865574907    0.9999568755 | 
    1280 |     0.1870650022    0.9999493802 | 
                 - Gap at zero temperature -
    1281 |     0.2521804058    0.0000232147 | 
    1282 |     0.2521878726    0.0000231600 | 
    1283 |     0.2522638877    0.0000226107 | 
    1284 |     0.2524961791    0.0000210116 | 
    1285 |     0.2525119990    0.0000209069 | 
                          ------
    2560 |     1.0399774160    0.0000000000 | 

                       |  Abs_value |  Threshold | Converged
     Delta_Free_energy |   5.65E-04 |   1.00E-06 |        No
     Delta_Energy      |   5.65E-04 |   1.00E-04 |        No
     Delta_Entropy     |   5.70E-07 |   1.00E-04 |       Yes
     Commutator        |   1.50E-05 |   1.00E-05 |        No
     Delta_Fermi_level |   6.34E-04 |   1.00E-03 |       Yes

  Line search of the free energy minimum:
  Step_type        Step             Free_energy   Predicted_free_energy
.   Initial    0.000000    -3682.21796105348676
.    Trial1    0.263982    -3682.21814328461369
.    Trial2    0.545116    -3682.21804500259759
. Quadratic    0.312922    -3682.21814780508839    -3682.21814785373181

--------------------------------------------------------------------------------
  Iter                              Commutator    Free_energy(A=E-TS)     DeltaA
#    3                          0.000010629654   -3682.21814780508839  -1.87E-04

Step                       =       0.312921501602
Energy                     =   -3682.218108168331
Entropy (-TS)              =      -0.000039637133
Free energy (A=E-TS)       =   -3682.218147805088
Est. 0K Energy 0.5*(E+A)   =   -3682.218127986710
Residual Non-orthogonality =       0.000000000000
Residual N_electrons       =       0.000000000376

Spin          Integrated_Ne            Fermi_level     Delta_Fermi_level
   1      2559.999999998285         0.218947113473              5.59E-04

                           Spin 1          
     Orb      H-eigenvalues     Occupancies
       1 |    -0.5002021109    1.0000000000 | 
                          ------
    1276 |     0.1859514309    0.9999701475 | 
    1277 |     0.1864788278    0.9999647382 | 
    1278 |     0.1864812945    0.9999647107 | 
    1279 |     0.1870674955    0.9999575350 | 
    1280 |     0.1875898502    0.9999499201 | 
                 - Gap at zero temperature -
    1281 |     0.2527823802    0.0000229004 | 
    1282 |     0.2527898036    0.0000228468 | 
    1283 |     0.2528655800    0.0000223066 | 
    1284 |     0.2531002552    0.0000207134 | 
    1285 |     0.2531017232    0.0000207038 | 
                          ------
    2560 |     1.0407886478    0.0000000000 | 

                       |  Abs_value |  Threshold | Converged
     Delta_Free_energy |   1.87E-04 |   1.00E-06 |        No
     Delta_Energy      |   1.87E-04 |   1.00E-04 |        No
     Delta_Entropy     |   4.73E-07 |   1.00E-04 |       Yes
     Commutator        |   1.06E-05 |   1.00E-05 |        No
     Delta_Fermi_level |   5.59E-04 |   1.00E-03 |       Yes

  Line search of the free energy minimum:
  Step_type        Step             Free_energy   Predicted_free_energy
.   Initial    0.000000    -3682.21814780508839
.    Trial1    0.312922    -3682.21823197881986
.    Trial2    0.575362    -3682.21811365533176
. Quadratic    0.263961    -3682.21823500281562    -3682.21823497792820

--------------------------------------------------------------------------------
  Iter                              Commutator    Free_energy(A=E-TS)     DeltaA
#    4                          0.000007474788   -3682.21823500281562  -8.72E-05

Step                       =       0.263961057668
Energy                     =   -3682.218195631252
Entropy (-TS)              =      -0.000039371576
Free energy (A=E-TS)       =   -3682.218235002816
Est. 0K Energy 0.5*(E+A)   =   -3682.218215317033
Residual Non-orthogonality =       0.000000000000
Residual N_electrons       =       0.000000000011

Spin          Integrated_Ne            Fermi_level     Delta_Fermi_level
   1      2559.999999999949         0.219272579087              3.25E-04

                           Spin 1          
[...]
 C   160 -- C   385       -0.09      5.37000
 C   159 -- C   384       -0.09      5.37000
 C   158 -- C   383       -0.09      5.37000
 C   157 -- C   382       -0.09      5.37000
 C   156 -- C   381       -0.09      5.37000
 C   155 -- C   355       -0.09      5.37000
 C   154 -- C   354       -0.09      5.37000
 C   153 -- C   353       -0.09      5.37000
 C   152 -- C   352       -0.09      5.37000
 C   151 -- C   351       -0.09      5.37000
 C   140 -- C   335       -0.09      5.37000
 C   139 -- C   334       -0.09      5.37000
 C   138 -- C   333       -0.09      5.37000
 C   137 -- C   332       -0.09      5.37000
 C   136 -- C   331       -0.09      5.37000
 C   115 -- C   325       -0.09      5.37000
 C   114 -- C   324       -0.09      5.37000
 C   113 -- C   323       -0.09      5.37000
 C   112 -- C   322       -0.09      5.37000
 C   111 -- C   321       -0.09      5.37000
 C   219 -- C   569       -0.09      5.37202
 C   218 -- C   568       -0.09      5.37202
 C   217 -- C   567       -0.09      5.37202
 C   216 -- C   566       -0.09      5.37202
 C   250 -- C   540       -0.09      5.37202
 C   249 -- C   539       -0.09      5.37202
 C   248 -- C   538       -0.09      5.37202
 C   247 -- C   537       -0.09      5.37202
 C   246 -- C   536       -0.09      5.37202
 C   220 -- C   570       -0.09      5.37202
 C   285 -- C   580       -0.09      5.37202
 C   284 -- C   579       -0.09      5.37202
 C   283 -- C   578       -0.09      5.37202
 C   282 -- C   577       -0.09      5.37202
 C   281 -- C   576       -0.09      5.37202
 C   260 -- C   605       -0.09      5.37202
 C   259 -- C   604       -0.09      5.37202
 C   258 -- C   603       -0.09      5.37202
 C   257 -- C   602       -0.09      5.37202
 C   256 -- C   601       -0.09      5.37202
 C   220 -- C   515       -0.09      5.37202
 C   219 -- C   514       -0.09      5.37202
 C   218 -- C   513       -0.09      5.37202
 C   217 -- C   512       -0.09      5.37202
 C   216 -- C   511       -0.09      5.37202
 C   195 -- C   540       -0.09      5.37202
 C   195 -- C   500       -0.09      5.37202
 C   194 -- C   539       -0.09      5.37202
 C   194 -- C   499       -0.09      5.37202
 C   193 -- C   538       -0.09      5.37202
 C   193 -- C   498       -0.09      5.37202
 C   192 -- C   537       -0.09      5.37202
 C   192 -- C   497       -0.09      5.37202
 C   191 -- C   536       -0.09      5.37202
 C   191 -- C   496       -0.09      5.37202
 C   180 -- C   515       -0.09      5.37202
 C   179 -- C   514       -0.09      5.37202
 C   178 -- C   513       -0.09      5.37202
 C   177 -- C   512       -0.09      5.37202
 C   176 -- C   511       -0.09      5.37202
 C    11 -- C   331       -0.09      5.37202
 C   205 -- C   550       -0.09      5.37202
 C   204 -- C   549       -0.09      5.37202
 C   203 -- C   548       -0.09      5.37202
 C   202 -- C   547       -0.09      5.37202
 C   201 -- C   546       -0.09      5.37202
 C    95 -- C   425       -0.09      5.37202
 C    95 -- C   365       -0.09      5.37202
 C    94 -- C   424       -0.09      5.37202
 C    94 -- C   364       -0.09      5.37202
 C    93 -- C   423       -0.09      5.37202
 C    93 -- C   363       -0.09      5.37202
 C    92 -- C   422       -0.09      5.37202
 C    92 -- C   362       -0.09      5.37202
 C    91 -- C   421       -0.09      5.37202
 C    91 -- C   361       -0.09      5.37202
 C    40 -- C   365       -0.09      5.37202
 C    39 -- C   364       -0.09      5.37202
 C    38 -- C   363       -0.09      5.37202
 C    37 -- C   362       -0.09      5.37202
 C    36 -- C   361       -0.09      5.37202
 C    15 -- C   335       -0.09      5.37202
 C    65 -- C   395       -0.09      5.37202
 C    65 -- C   345       -0.09      5.37202
 C    64 -- C   394       -0.09      5.37202
 C    64 -- C   344       -0.09      5.37202
 C    63 -- C   393       -0.09      5.37202
 C    30 -- C   355       -0.09      5.37202
 C    63 -- C   343       -0.09      5.37202
 C    62 -- C   392       -0.09      5.37202
 C    30 -- C   325       -0.09      5.37202
 C    14 -- C   334       -0.09      5.37202
 C    62 -- C   342       -0.09      5.37202
 C    61 -- C   391       -0.09      5.37202
 C    29 -- C   354       -0.09      5.37202
 C    61 -- C   341       -0.09      5.37202
 C    29 -- C   324       -0.09      5.37202
 C   260 -- C   550       -0.09      5.37202
 C   259 -- C   549       -0.09      5.37202
 C    28 -- C   353       -0.09      5.37202
 C   258 -- C   548       -0.09      5.37202
 C   257 -- C   547       -0.09      5.37202
 C   256 -- C   546       -0.09      5.37202
 C    28 -- C   323       -0.09      5.37202
 C    27 -- C   352       -0.09      5.37202
 C    13 -- C   333       -0.09      5.37202
 C    27 -- C   322       -0.09      5.37202
 C   120 -- C   395       -0.09      5.37202
 C    26 -- C   351       -0.09      5.37202
 C   119 -- C   394       -0.09      5.37202
 C   118 -- C   393       -0.09      5.37202
 C    55 -- C   335       -0.09      5.37202
 C   117 -- C   392       -0.09      5.37202
 C    26 -- C   321       -0.09      5.37202
 C   116 -- C   391       -0.09      5.37202
 C    54 -- C   334       -0.09      5.37202
 C    12 -- C   332       -0.09      5.37202
 C    53 -- C   333       -0.09      5.37202
 C   230 -- C   580       -0.09      5.37202
 C   230 -- C   525       -0.09      5.37202
 C   229 -- C   579       -0.09      5.37202
 C   229 -- C   524       -0.09      5.37202
 C   228 -- C   578       -0.09      5.37202
 C    52 -- C   332       -0.09      5.37202
 C   228 -- C   523       -0.09      5.37202
 C   227 -- C   577       -0.09      5.37202
 C   227 -- C   522       -0.09      5.37202
 C   226 -- C   576       -0.09      5.37202
 C   226 -- C   521       -0.09      5.37202
 C    51 -- C   331       -0.09      5.37202
 C    23 -- C   478       -0.09      5.37202
 C    49 -- C   469       -0.09      5.37202
 C    48 -- C   468       -0.09      5.37202
 C    47 -- C   467       -0.09      5.37202
 C    22 -- C   477       -0.09      5.37202
 C    46 -- C   466       -0.09      5.37202
 C    21 -- C   476       -0.09      5.37202
 C    85 -- C   355       -0.09      5.37202
 C    84 -- C   354       -0.09      5.37202
 C    83 -- C   353       -0.09      5.37202
 C    82 -- C   352       -0.09      5.37202
 C    81 -- C   351       -0.09      5.37202
 C    55 -- C   385       -0.09      5.37202
 C    54 -- C   384       -0.09      5.37202
 C    25 -- C   480       -0.09      5.37202
 C    53 -- C   383       -0.09      5.37202
 C    52 -- C   382       -0.09      5.37202
 C    51 -- C   381       -0.09      5.37202
 C    24 -- C   479       -0.09      5.37202
 C    50 -- C   470       -0.09      5.37202
 C    24 -- C   449       -0.09      5.37202
 C     6 -- C   416       -0.09      5.37202
 C    23 -- C   448       -0.09      5.37202
 C    22 -- C   447       -0.09      5.37202
 C    10 -- C   470       -0.09      5.37202
 C     5 -- C   450       -0.09      5.37202
 C    21 -- C   446       -0.09      5.37202
 C    10 -- C   420       -0.09      5.37202
 C     9 -- C   469       -0.09      5.37202
 C     9 -- C   419       -0.09      5.37202
 C     8 -- C   468       -0.09      5.37202
 C     4 -- C   449       -0.09      5.37202
 C   150 -- C   440       -0.09      5.37202
 C   149 -- C   439       -0.09      5.37202
 C   148 -- C   438       -0.09      5.37202
 C   147 -- C   437       -0.09      5.37202
 C     8 -- C   418       -0.09      5.37202
 C   146 -- C   436       -0.09      5.37202
 C     2 -- C   447       -0.09      5.37202
 C   135 -- C   460       -0.09      5.37202
 C     7 -- C   467       -0.09      5.37202
 C   134 -- C   459       -0.09      5.37202
 C   133 -- C   458       -0.09      5.37202
 C   132 -- C   457       -0.09      5.37202
 C   131 -- C   456       -0.09      5.37202
 C     7 -- C   417       -0.09      5.37202
 C     1 -- C   446       -0.09      5.37202
 C     6 -- C   466       -0.09      5.37202
 C    25 -- C   450       -0.09      5.37202
 C     3 -- C   448       -0.09      5.37202
 C   106 -- C   436       -0.09      5.37202
 C   106 -- C   376       -0.09      5.37202
 C    80 -- C   410       -0.09      5.37202
 C    79 -- C   409       -0.09      5.37202
 C    78 -- C   408       -0.09      5.37202
 C    77 -- C   407       -0.09      5.37202
 C    76 -- C   406       -0.09      5.37202
 C   135 -- C   410       -0.09      5.37202
 C   134 -- C   409       -0.09      5.37202
 C   133 -- C   408       -0.09      5.37202
 C   132 -- C   407       -0.09      5.37202
 C   131 -- C   406       -0.09      5.37202
 C   110 -- C   440       -0.09      5.37202
 C   110 -- C   380       -0.09      5.37202
 C   109 -- C   439       -0.09      5.37202
 C   109 -- C   379       -0.09      5.37202
 C   108 -- C   438       -0.09      5.37202
 C   108 -- C   378       -0.09      5.37202
 C   107 -- C   437       -0.09      5.37202
 C   107 -- C   377       -0.09      5.37202
 C   215 -- C   635       -0.09      5.38000
 C   214 -- C   634       -0.09      5.38000
 C   213 -- C   633       -0.09      5.38000
 C   212 -- C   632       -0.09      5.38000
 C   211 -- C   631       -0.09      5.38000
 C   190 -- C   620       -0.09      5.38000
 C   189 -- C   619       -0.09      5.38000
 C   188 -- C   618       -0.09      5.38000
 C   187 -- C   617       -0.09      5.38000
 C   186 -- C   616       -0.09      5.38000
 C   175 -- C   595       -0.09      5.38000
 C   174 -- C   594       -0.09      5.38000
 C   173 -- C   593       -0.09      5.38000
 C   172 -- C   592       -0.09      5.38000
 C   171 -- C   591       -0.09      5.38000
 C   245 -- C   640       -0.09      5.38000
 C   244 -- C   639       -0.09      5.38000
 C   243 -- C   638       -0.09      5.38000
 C   242 -- C   637       -0.09      5.38000
 C   241 -- C   636       -0.09      5.38000
==================================================


=================== Orbital energy and occupancy information ===================

      Total number of orbitals:    2560
        Occupancy sum (kernel):    1280.000000000
   Occupancy sum (eigenvalues):    1280.000000000
                 HOMO-LUMO gap:       0.000054442 Eh
                 Mid-gap level:       0.297828017 Eh

                        Orbital | Energy (Eh) | Occupancy
                            1    -0.456078429   1.0000000
                        .......   ...........   .........
                         1272     0.229748877   0.9999876
                         1273     0.230191187   0.9999858
                         1274     0.230217289   0.9999857
                         1275     0.234037704   0.9999522
                         1276     0.234041663   0.9999521
                         1277     0.234485721   0.9999449
                         1278     0.234489680   0.9999448
                         1279     0.234887950   0.9999374
                         1280     0.235321976   0.9999282
                         1281     0.297800796   0.0000376
                        ....... -- gap at 0K -- .........
                         1282     0.297855238   0.0000370
                         1283     0.298061986   0.0000346
                         1284     0.298116394   0.0000340
                         1285     0.298711357   0.0000283
                         1286     0.298714827   0.0000283
                         1287     0.298988956   0.0000259
                         1288     0.298992452   0.0000259
                         1289     0.299344145   0.0000232
                         1290     0.299599939   0.0000212
                         1291     0.299627569   0.0000212
                        .......   ...........   .........
                         2560     1.144180179   0.0000000

================================================================================

===================== Writing canonical molecular orbitals =====================
| Orbital  Energy (eV)  Norm     |
| HOMO      8.10357198  1.000000 | Writing "3.3003376_GO_manual_4x64graphite_HOMO.cube" ... done
Writing "3.3003376_GO_manual_4x64graphite_HOMO.dx" ... done
| LUMO      8.10505344  1.000000 | Writing "3.3003376_GO_manual_4x64graphite_LUMO.cube" ... done
Writing "3.3003376_GO_manual_4x64graphite_LUMO.dx" ... done
================================================================================
 
===================== Density of States (DOS) calculation ======================
Writing "3.3003376_GO_manual_4x64graphite_DOS.txt" ...  done
================================================================================
 
Writing bands to file "3.3003376_GO_manual_4x64graphite.val_bands" ... done
 
================ Projected Density of States (pDOS) calculation ================
 
Constructing AM resolved functions  ...... done
Writing NGWF plot files in formats: CUBE DX ...  done
 
Performing overlap integrals ...  done
 
Computing pDOS weights ...  done
 
All bands spilling parameter =   3.92 %
Occupancy-weighted spilling parameter =   0.90 %
 
 => Outputting data for OptaDOS <=
 
Writing pDOS weights to file "3.3003376_GO_manual_4x64graphite.val_pdos_bin" ... done
 
Writing band gradients to file "3.3003376_GO_manual_4x64graphite.val_dome_bin" ... done
 
Writing Castep output cell file to "3.3003376_GO_manual_4x64graphite-out.cell" ... done
 
 => Computing Gaussian smeared pDOS <= 
Writing "3.3003376_GO_manual_4x64graphite_PDOS.txt" ...  done
 
 => Computing Occupancy-weighted Gaussian smeared pDOS <= 
Writing "3.3003376_GO_manual_4x64graphite_occ_PDOS.txt" ...  done
  => Band centres: 
 S band centre of group 1:  -15.556275 eV
 P band centre of group 1:   -8.452906 eV
  Band centres done. <=
  => Integrated number of electrons in each AM band: 
 S num electrons of group 1:  574.768611
 P num electrons of group 1: 1962.148638
  Integrated number of electrons done. <=
================================================================================

------------------------------ TIMING INFORMATION ------------------------------
AVERAGE TIME:    4344.736s on     40 node(s)                                    
TOTAL TIME:      4344.736s on     40 node(s)                                    
================= AVERAGE TIMINGS FROM ALL NODES (CUMULATIVE) ==================
|| TAG                                    #calls    cpu time   %total  Gflops ||
|| work_imbalance                       :     1        0.00s   0.000%  ------ ||
|| paw_tcore_hartree_on_grid            :     1        0.00s   0.000%  ------ ||
|| paw_tcore_density                    :     1        0.01s   0.000%  ------ ||
|| paw_sphere_density_on_grid           :     1        0.01s   0.000%  ------ ||
|| sparse_set_to_garbage                :   183        0.03s   0.001%  ------ ||
|| paw_dij_hartree                      :   382        0.05s   0.001%  ------ ||
|| pseudo_make_structure_factor         :     1        0.05s   0.001%  ------ ||
|| basis_extract_function_from_box      :  2048        0.09s   0.002%  ------ ||
|| paw_species_calc_proj_prec_mat       :     1        0.12s   0.003%  ------ ||
|| paw_dataset_init                     :     1        0.15s   0.003%  ------ ||
|| density_init_guess_real              :     1        0.19s   0.004%  ------ ||
|| ngwfs_initialise_from_radial         :     2        0.66s   0.015%  ------ ||
|| restart_kernel_write                 :    17        0.94s   0.022%  ------ ||
|| sparse_init                          :     1        0.96s   0.022%  ------ ||
|| dense_normal_eigensolve              :     1        1.00s   0.023%  ------ ||
|| hartree_on_grid                      :   286        1.50s   0.034%  ------ ||
|| ewald_calculate_energy               :     1        2.37s   0.055%  ------ ||
|| projectors_init_fftbox_recip         :   161        3.12s   0.072%  ------ ||
|| fourier_apply_box_pair               :  3040        5.02s   0.116% 561.530 ||
|| basis_copy_function_to_box           : 27200        5.87s   0.135%  ------ ||
|| augmentation_screen_dij              :   293        6.29s   0.145%  ------ ||
|| sw_init                              :     1        6.73s   0.155%  ------ ||
|| sparse_embed_hotelling_invert_embed  :    31        8.98s   0.207%  ------ ||
|| ngwf_gradient_coeffs                 :    16       12.82s   0.295%  ------ ||
|| cell_grid_extract_box_real           : 11548       16.53s   0.381%  ------ ||
|| fourier_apply_cell_backward          :  8837       19.02s   0.438%  53.622 ||
|| sparse_trace                         :  3462       21.05s   0.484%  ------ ||
|| fourier_apply_cell_forward           :  8266       21.46s   0.494%  44.441 ||
|| cell_grid_deposit_box_real           : 36784       24.12s   0.555%  ------ ||
|| paw_dij_xc                           :   382       25.98s   0.598%  ------ ||
|| aug_nonlocal_mat                     :   366       39.33s   0.905%  ------ ||
|| density_fftbox_deposit_to_cell       : 18304       49.52s   1.140%  ------ ||
|| eigenstates_pdos                     :     1       54.11s   1.245%  ------ ||
|| augmentation_density_on_grid         :   286       57.02s   1.313%  ------ ||
|| eigenstates_calculate                :     1       58.18s   1.339%  ------ ||
|| function_ops_brappd_ketppd           :    64       65.89s   1.516%  ------ ||
|| hamiltonian_energy_components        :     4       66.24s   1.525%  ------ ||
|| projectors_func_ovlp_box             :    32       78.00s   1.795%  ------ ||
|| nlxc_vdw_energy                      :   570       81.07s   1.866%  ------ ||
|| xc_energy_potential                  :   285       87.13s   2.005%  ------ ||
|| properties_calculate                 :     1      103.03s   2.371%  ------ ||
|| integrals_kinetic                    :    31      113.75s   2.618%  ------ ||
|| dense_eigensolve                     :   250      121.37s   2.793%  ------ ||
|| potential_apply_to_ngwf_batch        :   364      143.25s   3.297%  ------ ||
|| restart_ngwfs_tightbox_output        :    15      144.00s   3.314%  ------ ||
|| sparse_product                       :  3487      160.49s   3.694%  ------ ||
|| basis_dot_function_with_box          : 9.120M     246.81s   5.681%  ------ ||
|| fourier_apply_box                    : 85568      265.59s   6.113% 980.698 ||
|| edft_diag_ngwf_ham                   :   249      274.46s   6.317%  ------ ||
|| projectors_gradient_batch            :    64      300.74s   6.922%  ------ ||
|| integrals_locpot_mat_els_batch       :   364      339.45s   7.813%  ------ ||
|| density_fftbox_interpolate_multiply  : 18304      355.25s   8.177%  ------ ||
|| projectors_grad_precond_batch        :    64      440.79s  10.145%  ------ ||
|| density_batch_interp_deposit         :  1144      450.04s  10.358%  ------ ||
|| integrals_locpot_dbl_grid            :    91      484.59s  11.154%  ------ ||
|| edft_apply_smearing_operator         :   249      539.12s  12.409%  ------ ||
|| basis_add_function_to_box            : 25.45M     661.36s  15.222%  ------ ||
|| ngwf_gradient_build_batch            :    64      790.09s  18.185%  ------ ||
|| density_batch_row_sums               :  1144      965.20s  22.215%  ------ ||
|| ngwf_gradient_batch                  :    64     1045.48s  24.063%  ------ ||
|| ngwf_gradient_lnv                    :    16     1073.90s  24.717%  ------ ||
|| density_on_dbl_grid                  :   286     1428.98s  32.890%  ------ ||
|| hamiltonian_lhxc_calculate           :   280     1545.52s  35.572%  ------ ||
|| edft_calculate                       :    16     2553.98s  58.783%  ------ ||
|| ngwf_cg_optimise                     :     1     4216.58s  97.050%  ------ ||
|| total_time                           :     1     4344.74s 100.000%  ------ ||
================================================================================
Overhead of generating timer report: 
- 0 ms averaging over threads,
- 5 ms ensuring consistency across MPI ranks,
- 0 ms printing in order.

Job completed: 26-02-2020 05:23 (-0000)

