 +---------------------------------------------------------------+
 |                                                               |
 |        ####### #     # ####### ####### ####### ######         |
 |        #     # ##    # #          #    #       #     #        |
 |        #     # # #   # #          #    #       #     #        |
 |        #     # #  #  # #####      #    #####   ######         |
 |        #     # #   # # #          #    #       #              |
 |        #     # #    ## #          #    #       #              |
 |        ####### #     # #######    #    ####### #              |
 |                                                               |
 |        Linear-Scaling Ab Initio Total Energy Program          |
 |                                                               |
 |          Release for academic collaborators of ODG            |
 |                                             Version 5.3.2.12  |
 |                                                               |
 +---------------------------------------------------------------+
 |                                                               |
 |  Authors:                                                     |
 |  Jacek Dziedzic, Peter D. Haynes, Nicholas D. M. Hine,        |
 |  Arash. A. Mostofi, Mike C. Payne and Chris-Kriton Skylaris   |
 |                                                               |
 |  Contributors:                                                |
 |  J. Aarons, L. Andrinopoulos, P. W. Avraam, R. A. Bell,       |
 |  A. Bhandari, G. A. Bramley, R. J. Charlton, S. J. Clark,     |
 |  R. J. Clements, G. C. Constantinescu, F. Corsetti,           |
 |  N. Corsini, O. Dieguez, S. M. M. Dubois, K. K. B. Duff,      |
 |  J. M. Escartin, A. Greco, H. Helal, Q. O. Hill, L. P. Lee,   |
 |  J.-H. Li, E. B. Linscott, G. Moynihan, D. D. O`Regan,        |
 |  O. K. Okan, M. J. S. Phipps, C. J. Pickard,                  |
 |  J. C. A. Prentice, M. I. J. Probert, L. E. Ratcliff,         |
 |  M. Robinson, A. Ruiz Serrano, J. S. Spencer, E. W. Tait,     |
 |  G. Teobaldi, D. Turban, V. Vitale, K. A. Wilkinson,          |
 |  C. Weber, J. C. Womack, N. Yeung and T. J. Zuehlsdorff       |
 |                                                               |
 |                                   Copyright (c) 2004-2020     |
 |                                                               |
 |  Please cite:                                                 |
 |  "Introducing ONETEP: Linear-scaling density functional       |
 |   simulations on parallel computers".                         |
 |   C.-K. Skylaris, P. D. Haynes, A. A. Mostofi, M. C. Payne.   |
 |   J. Chem. Phys. 122 084119 (2005).                           |
 |                                                               |
 |          in all publications arising from your use of ONETEP. |
 |                                                               |
 +---------------------------------------------------------------+
 |                                                               |
 |   ONETEP is based on developments described in the following  |
 |   publications:                                               |
 |                                                               |
 |  "Nonorthogonal generalized Wannier function pseudopotential  |
 |   plane-wave method".                                         |
 |   C.-K. Skylaris, A. A. Mostofi, P. D. Haynes, O. Dieguez,    |
 |   M. C. Payne.                                                |
 |   Phys. Rev. B 66 035119 (2002).                              |
 |                                                               |
 |  "Preconditioned iterative minimization for linear-scaling    |
 |   electronic structure calculations".                         |
 |   A. A. Mostofi, P. D. Haynes, C.-K. Skylaris, M. C. Payne.   |
 |   J. Chem. Phys. 119(17), pp.8842-8848 (2003).                |
 |                                                               |
 |  "Total-energy calculations on a real space grid with         |
 |   localized functions and a plane-wave basis".                |
 |   A. A. Mostofi, C.-K. Skylaris, P. D. Haynes, M. C. Payne.   |
 |   Comput. Phys. Commun. 147, pp.788-802 (2002).               |
 |                                                               |
 |  "Accurate kinetic energy evaluation in electronic structure  |
 |   calculations with localized functions on real space grids"  |
 |   C.-K. Skylaris, A. A. Mostofi, P. D. Haynes, C. J. Pickard, |
 |   M. C. Payne.                                                |
 |   Comput. Phys. Commun. 140, pp.315-322 (2001).               |
 |                                                               |
 |  "Accurate ionic forces and geometry optimization in linear-  |
 |   scaling density-functional theory with local orbitals"      |
 |   N. D. M. Hine, M. Robinson, P. D. Haynes, C.-K. Skylaris,   |
 |   M. C. Payne, and A. A. Mostofi.                             |
 |   Phys. Rev. B 83 195102 (2011).                              |
 |                                                               |
 +---------------------------------------------------------------+

Job started: 26-02-2020 05:10 (-0000)
 
Reading parameters from file "3.488156_GO_manual_4x64graphite.dat" ...

WARNING: "cutoff_energy" not specified, but "psinc_spacing" specified.
         Using the latter to set the KE cutoff energy to  732.32021eV,
         thus *overriding* the default.

... done

If your calculation crashes here, before "Checking processes and threads..."
is displayed, then your stack size is insufficient.
If so, use "ulimit -s unlimited" at runtime.
You can disable this check with "check_stack_size F".

Checking processes and threads...
   Determining the default number of threads...
      No default threads set at compilation time: defaulting to 1.
      OpenMP library call suggests 4 threads.
      Hybrid MPI-OpenMP compilation detected.
      Number of MPI processes > 1.
      OMP_NUM_THREADS environment variable present and
      its value matches the one obtained from the OpenMP library call.
      Using this value as default.
      Default threads: 4
      Default applies to threads_max and threads_num_fftboxes.
      Settings in the input file override this default.
   ... done

   Running with 40 MPI processes.
   There are 10 MPI processes running on the same node as the root process.
   Each MPI process is using: 
               1 threads for simulation cell FFTs.
               1 threads for parallel FFT box operations.
               4 threads for loops over batched FFT box operations.
               4 threads in other parallel regions.
... done

Basic input checks...
Resetting ngwf_cg_rotate to TRUE for EDFT calculations
... done

Reading geometry and species blocks from file "3.488156_GO_manual_4x64graphite.dat" ...
    
  PSINC grid spacing along a1 set to   0.511215680000a0 from input file.
  PSINC grid spacing along a2 set to   0.531284090000a0 from input file.
  PSINC grid spacing along a3 set to   0.507051770000a0 from input file.
  Number of PPD points along a3 set to 1.  This is 
  the default value, it may have been provided also in the input file.
... done
 Writing xyz coordinates to file "3.488156_GO_manual_4x64graphite.xyz" ... done


--------------------------------------------------------------------------------
---------------------------------- INPUT FILE ----------------------------------
--------------------------------------------------------------------------------

task : singlepoint                                                              
do_properties : true                                                            
dx_format T                                                                     
edft T                                                                          
output_detail VERBOSE                                                           
write_xyz T                                                                     
xc_functional VDWDF2                                                            
PSINC_SPACING 0.51121568 0.53128409 0.50705177                                  
paw T                                                                           
pdos_max_l = 2                                                                  
dos_smear  0.1 eV                                                               
popn_calculate T                                                                
PDOS_PSEUDOATOMIC T                                                             
PDOS_REDUCE_SWS F                                                               
PDOS_CONSTRUCT_BASIS F                                                          
PDOS_LOWDIN T                                                                   
PDOS_ORTH_ATOM_BLOCKS F                                                         
PDOS_LCAO_OPTIMIZE F                                                            
pdos_optados_output T                                                           
homo_plot 0                                                                     
lumo_plot 0                                                                     
homo_dens_plot -1                                                               
lumo_dens_plot -1                                                               
%BLOCK SPECIES                                                                  
C C 6 4 9.0                                                                     
%ENDBLOCK SPECIES                                                               
%BLOCK SPECIES_POT                                                              
C "~/pp/paw/c_pbe_abinit.paw"                                                   
%ENDBLOCK SPECIES_POT                                                           
%BLOCK SPECIES_ATOMIC_SET                                                       
C "SOLVE conf=2s2 2p2"                                                          
%ENDBLOCK SPECIES_ATOMIC_SET                                                    
%BLOCK LATTICE_CART                                                             
32.21  0.00  0.00                                                               
0.00 18.59  0.00                                                                
0.00  0.00 65.92                                                                
%ENDBLOCK LATTICE_CART                                                          
%BLOCK POSITIONS_ABS                                                            
C  0.00  0.00  3.30                                                             
C  0.00  0.00 16.48                                                             
C  0.00  0.00 29.66                                                             
C  0.00  0.00 42.85                                                             
C  0.00  0.00 56.03                                                             
C  0.00  4.65  3.30                                                             
C  0.00  4.65 16.48                                                             
C  0.00  4.65 29.66                                                             
C  0.00  4.65 42.85                                                             
C  0.00  4.65 56.03                                                             
C  4.03  2.32  3.30                                                             
C  4.03  2.32 16.48                                                             
C  4.03  2.32 29.66                                                             
C  4.03  2.32 42.85                                                             
C  4.03  2.32 56.03                                                             
C  8.05  0.00  3.30                                                             
C  8.05  0.00 16.48                                                             
C  8.05  0.00 29.66                                                             
C  8.05  0.00 42.85                                                             
C  8.05  0.00 56.03                                                             
C  0.00  9.30  3.30                                                             
C  0.00  9.30 16.48                                                             
C  0.00  9.30 29.66                                                             
C  0.00  9.30 42.85                                                             
C  0.00  9.30 56.03                                                             
C  4.03  6.97  3.30                                                             
C  4.03  6.97 16.48                                                             
C  4.03  6.97 29.66                                                             
C  4.03  6.97 42.85                                                             
C  4.03  6.97 56.03                                                             
C  8.05  4.65  3.30                                                             
C  8.05  4.65 16.48                                                             
C  8.05  4.65 29.66                                                             
C  8.05  4.65 42.85                                                             
C  8.05  4.65 56.03                                                             
C 12.08  2.32  3.30                                                             
C 12.08  2.32 16.48                                                             
C 12.08  2.32 29.66                                                             
C 12.08  2.32 42.85                                                             
C 12.08  2.32 56.03                                                             
C 16.10  0.00  3.30                                                             
C 16.10  0.00 16.48                                                             
C 16.10  0.00 29.66                                                             
C 16.10  0.00 42.85                                                             
C 16.10  0.00 56.03                                                             
C  0.00 13.95  3.30                                                             
C  0.00 13.95 16.48                                                             
C  0.00 13.95 29.66                                                             
C  0.00 13.95 42.85                                                             
C  0.00 13.95 56.03                                                             
C  4.03 11.62  3.30                                                             
C  4.03 11.62 16.48                                                             
C  4.03 11.62 29.66                                                             
C  4.03 11.62 42.85                                                             
C  4.03 11.62 56.03                                                             
C  8.05  9.30  3.30                                                             
C  8.05  9.30 16.48                                                             
C  8.05  9.30 29.66                                                             
C  8.05  9.30 42.85                                                             
C  8.05  9.30 56.03                                                             
C 12.08  6.97  3.30                                                             
C 12.08  6.97 16.48                                                             
C 12.08  6.97 29.66                                                             
C 12.08  6.97 42.85                                                             
C 12.08  6.97 56.03                                                             
C 16.10  4.65  3.30                                                             
C 16.10  4.65 16.48                                                             
C 16.10  4.65 29.66                                                             
C 16.10  4.65 42.85                                                             
C 16.10  4.65 56.03                                                             
C 20.13  2.32  3.30                                                             
C 20.13  2.32 16.48                                                             
C 20.13  2.32 29.66                                                             
C 20.13  2.32 42.85                                                             
C 20.13  2.32 56.03                                                             
C 24.16  0.00  3.30                                                             
C 24.16  0.00 16.48                                                             
C 24.16  0.00 29.66                                                             
C 24.16  0.00 42.85                                                             
C 24.16  0.00 56.03                                                             
C  4.03 16.27  3.30                                                             
C  4.03 16.27 16.48                                                             
C  4.03 16.27 29.66                                                             
C  4.03 16.27 42.85                                                             
C  4.03 16.27 56.03                                                             
C  8.05 13.95  3.30                                                             
C  8.05 13.95 16.48                                                             
C  8.05 13.95 29.66                                                             
C  8.05 13.95 42.85                                                             
C  8.05 13.95 56.03                                                             
C 12.08 11.62  3.30                                                             
C 12.08 11.62 16.48                                                             
C 12.08 11.62 29.66                                                             
C 12.08 11.62 42.85                                                             
C 12.08 11.62 56.03                                                             
C 16.10  9.30  3.30                                                             
C 16.10  9.30 16.48                                                             
C 16.10  9.30 29.66                                                             
C 16.10  9.30 42.85                                                             
C 16.10  9.30 56.03                                                             
C 20.13  6.97  3.30                                                             
C 20.13  6.97 16.48                                                             
C 20.13  6.97 29.66                                                             
C 20.13  6.97 42.85                                                             
C 20.13  6.97 56.03                                                             
C 24.16  4.65  3.30                                                             
C 24.16  4.65 16.48                                                             
C 24.16  4.65 29.66                                                             
C 24.16  4.65 42.85                                                             
C 24.16  4.65 56.03                                                             
C 28.18  2.32  3.30                                                             
C 28.18  2.32 16.48                                                             
C 28.18  2.32 29.66                                                             
C 28.18  2.32 42.85                                                             
C 28.18  2.32 56.03                                                             
C 12.08 16.27  3.30                                                             
C 12.08 16.27 16.48                                                             
C 12.08 16.27 29.66                                                             
C 12.08 16.27 42.85                                                             
C 12.08 16.27 56.03                                                             
C 16.10 13.95  3.30                                                             
C 16.10 13.95 16.48                                                             
C 16.10 13.95 29.66                                                             
C 16.10 13.95 42.85                                                             
C 16.10 13.95 56.03                                                             
C 20.13 11.62  3.30                                                             
C 20.13 11.62 16.48                                                             
C 20.13 11.62 29.66                                                             
C 20.13 11.62 42.85                                                             
C 20.13 11.62 56.03                                                             
C 24.16  9.30  3.30                                                             
C 24.16  9.30 16.48                                                             
C 24.16  9.30 29.66                                                             
C 24.16  9.30 42.85                                                             
C 24.16  9.30 56.03                                                             
C 28.18  6.97  3.30                                                             
C 28.18  6.97 16.48                                                             
C 28.18  6.97 29.66                                                             
C 28.18  6.97 42.85                                                             
C 28.18  6.97 56.03                                                             
C 20.13 16.27  3.30                                                             
C 20.13 16.27 16.48                                                             
C 20.13 16.27 29.66                                                             
C 20.13 16.27 42.85                                                             
C 20.13 16.27 56.03                                                             
C 24.16 13.95  3.30                                                             
C 24.16 13.95 16.48                                                             
C 24.16 13.95 29.66                                                             
C 24.16 13.95 42.85                                                             
C 24.16 13.95 56.03                                                             
C 28.18 11.62  3.30                                                             
C 28.18 11.62 16.48                                                             
C 28.18 11.62 29.66                                                             
C 28.18 11.62 42.85                                                             
C 28.18 11.62 56.03                                                             
C 28.18 16.27  3.30                                                             
C 28.18 16.27 16.48                                                             
C 28.18 16.27 29.66                                                             
C 28.18 16.27 42.85                                                             
C 28.18 16.27 56.03                                                             
C  0.00  0.00  9.89                                                             
C  0.00  0.00 23.07                                                             
C  0.00  0.00 36.25                                                             
C  0.00  0.00 49.44                                                             
C  0.00  0.00 62.62                                                             
C  0.00  4.65  9.89                                                             
C  0.00  4.65 23.07                                                             
C  0.00  4.65 36.25                                                             
C  0.00  4.65 49.44                                                             
C  0.00  4.65 62.62                                                             
C  4.03  2.32  9.89                                                             
C  4.03  2.32 23.07                                                             
C  4.03  2.32 36.25                                                             
C  4.03  2.32 49.44                                                             
C  4.03  2.32 62.62                                                             
C  8.05  0.00  9.89                                                             
C  8.05  0.00 23.07                                                             
C  8.05  0.00 36.25                                                             
C  8.05  0.00 49.44                                                             
C  8.05  0.00 62.62                                                             
C  0.00  9.30  9.89                                                             
C  0.00  9.30 23.07                                                             
C  0.00  9.30 36.25                                                             
C  0.00  9.30 49.44                                                             
C  0.00  9.30 62.62                                                             
C  4.03  6.97  9.89                                                             
C  4.03  6.97 23.07                                                             
C  4.03  6.97 36.25                                                             
C  4.03  6.97 49.44                                                             
C  4.03  6.97 62.62                                                             
C  8.05  4.65  9.89                                                             
C  8.05  4.65 23.07                                                             
C  8.05  4.65 36.25                                                             
C  8.05  4.65 49.44                                                             
C  8.05  4.65 62.62                                                             
C 12.08  2.32  9.89                                                             
C 12.08  2.32 23.07                                                             
C 12.08  2.32 36.25                                                             
C 12.08  2.32 49.44                                                             
C 12.08  2.32 62.62                                                             
C 16.10  0.00  9.89                                                             
C 16.10  0.00 23.07                                                             
C 16.10  0.00 36.25                                                             
C 16.10  0.00 49.44                                                             
C 16.10  0.00 62.62                                                             
C  0.00 13.95  9.89                                                             
C  0.00 13.95 23.07                                                             
C  0.00 13.95 36.25                                                             
C  0.00 13.95 49.44                                                             
C  0.00 13.95 62.62                                                             
C  4.03 11.62  9.89                                                             
C  4.03 11.62 23.07                                                             
C  4.03 11.62 36.25                                                             
C  4.03 11.62 49.44                                                             
C  4.03 11.62 62.62                                                             
C  8.05  9.30  9.89                                                             
C  8.05  9.30 23.07                                                             
C  8.05  9.30 36.25                                                             
C  8.05  9.30 49.44                                                             
C  8.05  9.30 62.62                                                             
C 12.08  6.97  9.89                                                             
C 12.08  6.97 23.07                                                             
C 12.08  6.97 36.25                                                             
C 12.08  6.97 49.44                                                             
C 12.08  6.97 62.62                                                             
C 16.10  4.65  9.89                                                             
C 16.10  4.65 23.07                                                             
C 16.10  4.65 36.25                                                             
C 16.10  4.65 49.44                                                             
C 16.10  4.65 62.62                                                             
C 20.13  2.32  9.89                                                             
C 20.13  2.32 23.07                                                             
C 20.13  2.32 36.25                                                             
C 20.13  2.32 49.44                                                             
C 20.13  2.32 62.62                                                             
C 24.16  0.00  9.89                                                             
C 24.16  0.00 23.07                                                             
C 24.16  0.00 36.25                                                             
C 24.16  0.00 49.44                                                             
C 24.16  0.00 62.62                                                             
C  4.03 16.27  9.89                                                             
C  4.03 16.27 23.07                                                             
C  4.03 16.27 36.25                                                             
C  4.03 16.27 49.44                                                             
C  4.03 16.27 62.62                                                             
C  8.05 13.95  9.89                                                             
C  8.05 13.95 23.07                                                             
C  8.05 13.95 36.25                                                             
C  8.05 13.95 49.44                                                             
C  8.05 13.95 62.62                                                             
C 12.08 11.62  9.89                                                             
C 12.08 11.62 23.07                                                             
C 12.08 11.62 36.25                                                             
C 12.08 11.62 49.44                                                             
C 12.08 11.62 62.62                                                             
C 16.10  9.30  9.89                                                             
C 16.10  9.30 23.07                                                             
C 16.10  9.30 36.25                                                             
C 16.10  9.30 49.44                                                             
C 16.10  9.30 62.62                                                             
C 20.13  6.97  9.89                                                             
C 20.13  6.97 23.07                                                             
C 20.13  6.97 36.25                                                             
C 20.13  6.97 49.44                                                             
C 20.13  6.97 62.62                                                             
C 24.16  4.65  9.89                                                             
C 24.16  4.65 23.07                                                             
C 24.16  4.65 36.25                                                             
C 24.16  4.65 49.44                                                             
C 24.16  4.65 62.62                                                             
C 28.18  2.32  9.89                                                             
C 28.18  2.32 23.07                                                             
C 28.18  2.32 36.25                                                             
C 28.18  2.32 49.44                                                             
C 28.18  2.32 62.62                                                             
C 12.08 16.27  9.89                                                             
C 12.08 16.27 23.07                                                             
C 12.08 16.27 36.25                                                             
C 12.08 16.27 49.44                                                             
C 12.08 16.27 62.62                                                             
C 16.10 13.95  9.89                                                             
C 16.10 13.95 23.07                                                             
C 16.10 13.95 36.25                                                             
C 16.10 13.95 49.44                                                             
C 16.10 13.95 62.62                                                             
C 20.13 11.62  9.89                                                             
C 20.13 11.62 23.07                                                             
C 20.13 11.62 36.25                                                             
C 20.13 11.62 49.44                                                             
C 20.13 11.62 62.62                                                             
C 24.16  9.30  9.89                                                             
C 24.16  9.30 23.07                                                             
C 24.16  9.30 36.25                                                             
C 24.16  9.30 49.44                                                             
C 24.16  9.30 62.62                                                             
C 28.18  6.97  9.89                                                             
C 28.18  6.97 23.07                                                             
C 28.18  6.97 36.25                                                             
C 28.18  6.97 49.44                                                             
C 28.18  6.97 62.62                                                             
C 20.13 16.27  9.89                                                             
C 20.13 16.27 23.07                                                             
C 20.13 16.27 36.25                                                             
C 20.13 16.27 49.44                                                             
C 20.13 16.27 62.62                                                             
C 24.16 13.95  9.89                                                             
C 24.16 13.95 23.07                                                             
C 24.16 13.95 36.25                                                             
C 24.16 13.95 49.44                                                             
C 24.16 13.95 62.62                                                             
C 28.18 11.62  9.89                                                             
C 28.18 11.62 23.07                                                             
C 28.18 11.62 36.25                                                             
C 28.18 11.62 49.44                                                             
C 28.18 11.62 62.62                                                             
C 28.18 16.27  9.89                                                             
C 28.18 16.27 23.07                                                             
C 28.18 16.27 36.25                                                             
C 28.18 16.27 49.44                                                             
C 28.18 16.27 62.62                                                             
C  1.34  2.32  3.30                                                             
C  1.34  2.32 16.48                                                             
C  1.34  2.32 29.66                                                             
C  1.34  2.32 42.85                                                             
C  1.34  2.32 56.03                                                             
C  5.37  0.00  3.30                                                             
C  5.37  0.00 16.48                                                             
C  5.37  0.00 29.66                                                             
C  5.37  0.00 42.85                                                             
C  5.37  0.00 56.03                                                             
C  1.34  6.97  3.30                                                             
C  1.34  6.97 16.48                                                             
C  1.34  6.97 29.66                                                             
C  1.34  6.97 42.85                                                             
C  1.34  6.97 56.03                                                             
C  5.37  4.65  3.30                                                             
C  5.37  4.65 16.48                                                             
C  5.37  4.65 29.66                                                             
C  5.37  4.65 42.85                                                             
C  5.37  4.65 56.03                                                             
C  9.39  2.32  3.30                                                             
C  9.39  2.32 16.48                                                             
C  9.39  2.32 29.66                                                             
C  9.39  2.32 42.85                                                             
C  9.39  2.32 56.03                                                             
C 13.42  0.00  3.30                                                             
C 13.42  0.00 16.48                                                             
C 13.42  0.00 29.66                                                             
C 13.42  0.00 42.85                                                             
C 13.42  0.00 56.03                                                             
C  1.34 11.62  3.30                                                             
C  1.34 11.62 16.48                                                             
C  1.34 11.62 29.66                                                             
C  1.34 11.62 42.85                                                             
C  1.34 11.62 56.03                                                             
C  5.37  9.30  3.30                                                             
C  5.37  9.30 16.48                                                             
C  5.37  9.30 29.66                                                             
C  5.37  9.30 42.85                                                             
C  5.37  9.30 56.03                                                             
C  9.39  6.97  3.30                                                             
C  9.39  6.97 16.48                                                             
C  9.39  6.97 29.66                                                             
C  9.39  6.97 42.85                                                             
C  9.39  6.97 56.03                                                             
C 13.42  4.65  3.30                                                             
C 13.42  4.65 16.48                                                             
C 13.42  4.65 29.66                                                             
C 13.42  4.65 42.85                                                             
C 13.42  4.65 56.03                                                             
C 17.45  2.32  3.30                                                             
C 17.45  2.32 16.48                                                             
C 17.45  2.32 29.66                                                             
C 17.45  2.32 42.85                                                             
C 17.45  2.32 56.03                                                             
C 21.47  0.00  3.30                                                             
C 21.47  0.00 16.48                                                             
C 21.47  0.00 29.66                                                             
C 21.47  0.00 42.85                                                             
C 21.47  0.00 56.03                                                             
C  1.34 16.27  3.30                                                             
C  1.34 16.27 16.48                                                             
C  1.34 16.27 29.66                                                             
C  1.34 16.27 42.85                                                             
C  1.34 16.27 56.03                                                             
C  5.37 13.95  3.30                                                             
C  5.37 13.95 16.48                                                             
C  5.37 13.95 29.66                                                             
C  5.37 13.95 42.85                                                             
C  5.37 13.95 56.03                                                             
C  9.39 11.62  3.30                                                             
C  9.39 11.62 16.48                                                             
C  9.39 11.62 29.66                                                             
C  9.39 11.62 42.85                                                             
C  9.39 11.62 56.03                                                             
C 13.42  9.30  3.30                                                             
C 13.42  9.30 16.48                                                             
C 13.42  9.30 29.66                                                             
C 13.42  9.30 42.85                                                             
C 13.42  9.30 56.03                                                             
C 17.45  6.97  3.30                                                             
C 17.45  6.97 16.48                                                             
C 17.45  6.97 29.66                                                             
C 17.45  6.97 42.85                                                             
C 17.45  6.97 56.03                                                             
C 21.47  4.65  3.30                                                             
C 21.47  4.65 16.48                                                             
C 21.47  4.65 29.66                                                             
C 21.47  4.65 42.85                                                             
C 21.47  4.65 56.03                                                             
C 25.50  2.32  3.30                                                             
C 25.50  2.32 16.48                                                             
C 25.50  2.32 29.66                                                             
C 25.50  2.32 42.85                                                             
C 25.50  2.32 56.03                                                             
C 29.52  0.00  3.30                                                             
C 29.52  0.00 16.48                                                             
C 29.52  0.00 29.66                                                             
C 29.52  0.00 42.85                                                             
C 29.52  0.00 56.03                                                             
C  9.39 16.27  3.30                                                             
C  9.39 16.27 16.48                                                             
C  9.39 16.27 29.66                                                             
C  9.39 16.27 42.85                                                             
C  9.39 16.27 56.03                                                             
C 13.42 13.95  3.30                                                             
C 13.42 13.95 16.48                                                             
C 13.42 13.95 29.66                                                             
C 13.42 13.95 42.85                                                             
C 13.42 13.95 56.03                                                             
C 17.45 11.62  3.30                                                             
C 17.45 11.62 16.48                                                             
C 17.45 11.62 29.66                                                             
C 17.45 11.62 42.85                                                             
C 17.45 11.62 56.03                                                             
C 21.47  9.30  3.30                                                             
C 21.47  9.30 16.48                                                             
C 21.47  9.30 29.66                                                             
C 21.47  9.30 42.85                                                             
C 21.47  9.30 56.03                                                             
C 25.50  6.97  3.30                                                             
C 25.50  6.97 16.48                                                             
C 25.50  6.97 29.66                                                             
C 25.50  6.97 42.85                                                             
C 25.50  6.97 56.03                                                             
C 29.52  4.65  3.30                                                             
C 29.52  4.65 16.48                                                             
C 29.52  4.65 29.66                                                             
C 29.52  4.65 42.85                                                             
C 29.52  4.65 56.03                                                             
C 17.45 16.27  3.30                                                             
C 17.45 16.27 16.48                                                             
C 17.45 16.27 29.66                                                             
C 17.45 16.27 42.85                                                             
C 17.45 16.27 56.03                                                             
C 21.47 13.95  3.30                                                             
C 21.47 13.95 16.48                                                             
C 21.47 13.95 29.66                                                             
C 21.47 13.95 42.85                                                             
C 21.47 13.95 56.03                                                             
C 25.50 11.62  3.30                                                             
C 25.50 11.62 16.48                                                             
C 25.50 11.62 29.66                                                             
C 25.50 11.62 42.85                                                             
C 25.50 11.62 56.03                                                             
C 29.52  9.30  3.30                                                             
C 29.52  9.30 16.48                                                             
C 29.52  9.30 29.66                                                             
C 29.52  9.30 42.85                                                             
C 29.52  9.30 56.03                                                             
C 25.50 16.27  3.30                                                             
C 25.50 16.27 16.48                                                             
C 25.50 16.27 29.66                                                             
C 25.50 16.27 42.85                                                             
C 25.50 16.27 56.03                                                             
C 29.52 13.95  3.30                                                             
C 29.52 13.95 16.48                                                             
C 29.52 13.95 29.66                                                             
C 29.52 13.95 42.85                                                             
C 29.52 13.95 56.03                                                             
C  2.68  0.00  9.89                                                             
C  2.68  0.00 23.07                                                             
C  2.68  0.00 36.25                                                             
C  2.68  0.00 49.44                                                             
C  2.68  0.00 62.62                                                             
C  2.68  4.65  9.89                                                             
C  2.68  4.65 23.07                                                             
C  2.68  4.65 36.25                                                             
C  2.68  4.65 49.44                                                             
C  2.68  4.65 62.62                                                             
C  6.71  2.32  9.89                                                             
C  6.71  2.32 23.07                                                             
C  6.71  2.32 36.25                                                             
C  6.71  2.32 49.44                                                             
C  6.71  2.32 62.62                                                             
C 10.74  0.00  9.89                                                             
C 10.74  0.00 23.07                                                             
C 10.74  0.00 36.25                                                             
C 10.74  0.00 49.44                                                             
C 10.74  0.00 62.62                                                             
C  2.68  9.30  9.89                                                             
C  2.68  9.30 23.07                                                             
C  2.68  9.30 36.25                                                             
C  2.68  9.30 49.44                                                             
C  2.68  9.30 62.62                                                             
C  6.71  6.97  9.89                                                             
C  6.71  6.97 23.07                                                             
C  6.71  6.97 36.25                                                             
C  6.71  6.97 49.44                                                             
C  6.71  6.97 62.62                                                             
C 10.74  4.65  9.89                                                             
C 10.74  4.65 23.07                                                             
C 10.74  4.65 36.25                                                             
C 10.74  4.65 49.44                                                             
C 10.74  4.65 62.62                                                             
C 14.76  2.32  9.89                                                             
C 14.76  2.32 23.07                                                             
C 14.76  2.32 36.25                                                             
C 14.76  2.32 49.44                                                             
C 14.76  2.32 62.62                                                             
C 18.79  0.00  9.89                                                             
C 18.79  0.00 23.07                                                             
C 18.79  0.00 36.25                                                             
C 18.79  0.00 49.44                                                             
C 18.79  0.00 62.62                                                             
C  2.68 13.95  9.89                                                             
C  2.68 13.95 23.07                                                             
C  2.68 13.95 36.25                                                             
C  2.68 13.95 49.44                                                             
C  2.68 13.95 62.62                                                             
C  6.71 11.62  9.89                                                             
C  6.71 11.62 23.07                                                             
C  6.71 11.62 36.25                                                             
C  6.71 11.62 49.44                                                             
C  6.71 11.62 62.62                                                             
C 10.74  9.30  9.89                                                             
C 10.74  9.30 23.07                                                             
C 10.74  9.30 36.25                                                             
C 10.74  9.30 49.44                                                             
C 10.74  9.30 62.62                                                             
C 14.76  6.97  9.89                                                             
C 14.76  6.97 23.07                                                             
C 14.76  6.97 36.25                                                             
C 14.76  6.97 49.44                                                             
C 14.76  6.97 62.62                                                             
C 18.79  4.65  9.89                                                             
C 18.79  4.65 23.07                                                             
C 18.79  4.65 36.25                                                             
C 18.79  4.65 49.44                                                             
C 18.79  4.65 62.62                                                             
C 22.81  2.32  9.89                                                             
C 22.81  2.32 23.07                                                             
C 22.81  2.32 36.25                                                             
C 22.81  2.32 49.44                                                             
C 22.81  2.32 62.62                                                             
C 26.84  0.00  9.89                                                             
C 26.84  0.00 23.07                                                             
C 26.84  0.00 36.25                                                             
C 26.84  0.00 49.44                                                             
C 26.84  0.00 62.62                                                             
C  6.71 16.27  9.89                                                             
C  6.71 16.27 23.07                                                             
C  6.71 16.27 36.25                                                             
C  6.71 16.27 49.44                                                             
C  6.71 16.27 62.62                                                             
C 10.74 13.95  9.89                                                             
C 10.74 13.95 23.07                                                             
C 10.74 13.95 36.25                                                             
C 10.74 13.95 49.44                                                             
C 10.74 13.95 62.62                                                             
C 14.76 11.62  9.89                                                             
C 14.76 11.62 23.07                                                             
C 14.76 11.62 36.25                                                             
C 14.76 11.62 49.44                                                             
C 14.76 11.62 62.62                                                             
C 18.79  9.30  9.89                                                             
C 18.79  9.30 23.07                                                             
C 18.79  9.30 36.25                                                             
C 18.79  9.30 49.44                                                             
C 18.79  9.30 62.62                                                             
C 22.81  6.97  9.89                                                             
C 22.81  6.97 23.07                                                             
C 22.81  6.97 36.25                                                             
C 22.81  6.97 49.44                                                             
C 22.81  6.97 62.62                                                             
C 26.84  4.65  9.89                                                             
C 26.84  4.65 23.07                                                             
C 26.84  4.65 36.25                                                             
C 26.84  4.65 49.44                                                             
C 26.84  4.65 62.62                                                             
C 30.86  2.32  9.89                                                             
C 30.86  2.32 23.07                                                             
C 30.86  2.32 36.25                                                             
C 30.86  2.32 49.44                                                             
C 30.86  2.32 62.62                                                             
C 14.76 16.27  9.89                                                             
C 14.76 16.27 23.07                                                             
C 14.76 16.27 36.25                                                             
C 14.76 16.27 49.44                                                             
C 14.76 16.27 62.62                                                             
C 18.79 13.95  9.89                                                             
C 18.79 13.95 23.07                                                             
C 18.79 13.95 36.25                                                             
C 18.79 13.95 49.44                                                             
C 18.79 13.95 62.62                                                             
C 22.81 11.62  9.89                                                             
C 22.81 11.62 23.07                                                             
C 22.81 11.62 36.25                                                             
C 22.81 11.62 49.44                                                             
C 22.81 11.62 62.62                                                             
C 26.84  9.30  9.89                                                             
C 26.84  9.30 23.07                                                             
C 26.84  9.30 36.25                                                             
C 26.84  9.30 49.44                                                             
C 26.84  9.30 62.62                                                             
C 30.86  6.97  9.89                                                             
C 30.86  6.97 23.07                                                             
C 30.86  6.97 36.25                                                             
C 30.86  6.97 49.44                                                             
C 30.86  6.97 62.62                                                             
C 22.81 16.27  9.89                                                             
C 22.81 16.27 23.07                                                             
C 22.81 16.27 36.25                                                             
C 22.81 16.27 49.44                                                             
C 22.81 16.27 62.62                                                             
C 26.84 13.95  9.89                                                             
C 26.84 13.95 23.07                                                             
C 26.84 13.95 36.25                                                             
C 26.84 13.95 49.44                                                             
C 26.84 13.95 62.62                                                             
C 30.86 11.62  9.89                                                             
C 30.86 11.62 23.07                                                             
C 30.86 11.62 36.25                                                             
C 30.86 11.62 49.44                                                             
C 30.86 11.62 62.62                                                             
C 30.86 16.27  9.89                                                             
C 30.86 16.27 23.07                                                             
C 30.86 16.27 36.25                                                             
C 30.86 16.27 49.44                                                             
C 30.86 16.27 62.62                                                             
%ENDBLOCK POSITIONS_ABS                                                         

--------------------------------------------------------------------------------
-------------------------------- END INPUT FILE --------------------------------
--------------------------------------------------------------------------------


 
<<<<<<<<<<<<<<<<<<<<<<<<<<<<<<<<< Full system >>>>>>>>>>>>>>>>>>>>>>>>>>>>>>>>>>
<<<<<<<<<<<<<<<<<<<<<<<<<<< PAW Dataset information >>>>>>>>>>>>>>>>>>>>>>>>>>>
File: ~/pp/paw/c_pbe_abinit.paw; rc = 1.25 bohr; shape type =  3; rshape = 1.25 bohr;
  Atomic number:  6;  ionic charge:  4.000000
    Partial Wave 1: l = 0
    Partial Wave 2: l = 0
    Partial Wave 3: l = 1
    Partial Wave 4: l = 1
  Core charge supplied for Nonlinear Core Corrections
<<<<<<<<<<<<<<<<<<<<<<<<<<<<<<<<<<<<<<< >>>>>>>>>>>>>>>>>>>>>>>>>>>>>>>>>>>>>>>

-------------------------- Atom counting information ---------------------------
Symbol    Natoms    Nngwfs    Nprojs
  C        640      2560      5120
.......   ......    ......    ......
Totals:    640      2560      5120
--------------------------------------------------------------------------------

=============================== PSINC grid sizes ===============================
                      Simulation cell:   63 x  35 x 130
                              FFT-box:   63 x  35 x 117
                                  PPD:    7 x   5 x   1
Grid space d1=  0.511269841270a0 (KE cutoff=  29.06054Eh = 790.77748eV)
Grid space d2=  0.531142857143a0 (KE cutoff=  26.92659Eh = 732.70972eV)
Grid space d3=  0.507076923077a0 (KE cutoff=  29.54312Eh = 803.90911eV)
================================================================================
  
WARNING in cell_grid_distribute:
Average of less than one 23-slab per node, so workload cannot be
equally balanced between nodes.

********************* Fourier parallelisation information **********************
       Coarse grid (whole simulation cell) dimensions:     63    35   130
          Real-space ('12') slabs/node (min max mean):      3     4     3
         Recip-space ('23') slabs/node (min max mean):      0     1     0
********************************************************************************

********************* Fourier parallelisation information **********************
       Double grid (whole simulation cell) dimensions:    126    70   260
          Real-space ('12') slabs/node (min max mean):      6     7     6
         Recip-space ('23') slabs/node (min max mean):      1     2     1
********************************************************************************

Atom SCF Calculation for C  : Z (AE atom) =   6 : Z (PS atom) =   4
Config String: 2s2 2p2
Orbitals (num,occ):  2     2.00 2.00
Orbitals   (num,l):  2        0    1
Real-space Grid (nr,dr,rmax): 1293    0.0069659443    9.0000000000
Spherical Bessel Basis (nsws,lmax,cutoff):   37    2  161.4736382572
Confining potential (l,width,scale):  0    3.0000000000  100.0000000000
Confining potential (l,width,scale):  1    3.0000000000  100.0000000000
  1         -5.4691149987   -1.3647045835    4.5135257941   -1.6713568800
  2         -5.5214542834   -1.4154291535    4.4635199061   -1.6585170582
  3         -5.5221055910   -1.4439161209    4.4342087028   -1.6520281659
  4         -5.5287901521   -1.4522301802    4.4259176063   -1.6507873939
  5         -5.5308251003   -1.4557840400    4.4224142384   -1.6502632738
  6         -5.5317252094   -1.4571386008    4.4211068249   -1.6500892907
  7         -5.5320765973   -1.4576738924    4.4205997642   -1.6500256779
  8         -5.5322192721   -1.4578833190    4.4204056023   -1.6500032912
  9         -5.5322765240   -1.4579657561    4.4203308649   -1.6499954152
 10         -5.5322995843   -1.4579982639    4.4203020904   -1.6499927055
 11         -5.5323088576   -1.4580111317    4.4202909828   -1.6499917962
 12         -5.5323125859   -1.4580162439    4.4202866844   -1.6499915030
 13         -5.5323140836   -1.4580182832    4.4202850159   -1.6499914143
 14         -5.5323146847   -1.4580191002    4.4202843659   -1.6499913905
 15         -5.5323149258   -1.4580194290    4.4202841117   -1.6499913858
 16         -5.5323150224   -1.4580195619    4.4202840119   -1.6499913859
Atom SCF converged after  16 iterations to a total energy of     -5.53231502

Determining parallel strategy ...
... using space-filling curve
... NGWF load balancing: max     64;  min     64;  average     64
... Projector load balancing: max    128;  min    128;  average    128
... done
Calculating Ewald energy ...
              Ewald: real-space energy =    9488.262882
        Ewald: reciprocal-space energy =       0.145035
         Ewald: (sum_charge)**2 Energy =   11167.625436
         Ewald: (sum_charge**2) Energy =     882.878311
                          Ewald Energy =   -2562.095829
Basis initialisation ...... NGWF spheres initialised
... Projector spheres initialised
... NGWF tight boxes initialised
... Projector tight boxes initialised
... Tight-boxes gathered
... NGWF basis size (local,global):     693268  27922112
... PAW projector initialisation
... done

============================= Charge Augmentation ==============================
                           Aug box size:   11 x  11 x  11
================================================================================

========================== Sparse matrix information ===========================
                        Overlap matrix filling:  42.19%
                        Density kernel filling: 100.00%
              NGWF-Proj overlap matrix filling:  12.19%
                    Aug Overlap matrix filling:  47.03%
                    Hamiltonian matrix filling:  47.03%
                  NGWF diagonal matrix filling:   0.16%
                             KS matrix filling: 100.00% 
                           KSKS matrix filling: 100.00% 
================================================================================

Sparse matrix initialisation ... done
NGWF initialisation ...... done
============ Calculation of NGWF S^-1 using Hotelling algorithm ================ 
         Iteration  |  Frobenius norm and Maximum abs value    (of I-S*S_n^-1)   
               1       0.49072089E+02     0.97616853E+00
               2       0.47851216E+02     0.95414769E+00
               3       0.46014929E+02     0.91463031E+00
               4       0.43627452E+02     0.84917342E+00
               5       0.40763685E+02     0.75182981E+00
               6       0.37421797E+02     0.67989143E+00
               7       0.33913623E+02     0.63175702E+00
               8       0.30544323E+02     0.59109732E+00
               9       0.26938075E+02     0.54657811E+00
              10       0.22381938E+02     0.47696174E+00
              11       0.16462502E+02     0.36660626E+00
              12       0.96815993E+01     0.22152283E+00
              13       0.38362137E+01     0.86152656E-01
              14       0.71863587E+00     0.14894931E-01
              15       0.29702265E-01     0.54255619E-03
              16       0.63443007E-04     0.90647138E-06
              17       0.43275770E-09     0.38369308E-11
              18       0.71180214E-13     0.46629367E-14
================================================================================
Calculating core density ...
================================= Core Density =================================
               Core den box size:   21 x  21 x  21
================================================================================
 ... done
Up spin density kernel initialisation ...... done

Writing density kernel to file "3.488156_GO_manual_4x64graphite.dkn" ... done

>>> Optimising kernel for current NGWFs:

--------------------------- Ensemble-DFT optimisation --------------------------
Running ScaLAPACK on   40 processor(s).

--------------------------------------------------------------------------------
  Iter                              Commutator    Free_energy(A=E-TS)     DeltaA
#    0                          0.000045459761   -3681.25934268398487  -3.68E+03

Step                       =       0.381966011250
Energy                     =   -3681.259305784321
Entropy (-TS)              =      -0.000036899523
Free energy (A=E-TS)       =   -3681.259342683985
Est. 0K Energy 0.5*(E+A)   =   -3681.259324234153
Residual Non-orthogonality =       0.000000000000
Residual N_electrons       =      -0.000000000141

Spin          Integrated_Ne            Fermi_level     Delta_Fermi_level
   1      2560.000000000754         0.187400282968              1.87E-01

                           Spin 1          
     Orb      H-eigenvalues     Occupancies
       1 |    -0.5286896666    1.0000000000 | 
                          ------
    1276 |     0.1538436014    0.9999749938 | 
    1277 |     0.1544528622    0.9999696891 | 
    1278 |     0.1544644229    0.9999695783 | 
    1279 |     0.1548154365    0.9999660124 | 
    1280 |     0.1554336404    0.9999586860 | 
                 - Gap at zero temperature -
    1281 |     0.2219244416    0.0000184235 | 
    1282 |     0.2219317372    0.0000183811 | 
    1283 |     0.2219432051    0.0000183146 | 
    1284 |     0.2221545203    0.0000171324 | 
    1285 |     0.2221617540    0.0000170933 | 
                          ------
    2560 |     1.0074494677    0.0000000000 | 

                       |  Abs_value |  Threshold | Converged
     Delta_Free_energy |   3.68E+03 |   1.00E-06 |        No
     Delta_Energy      |   3.68E+03 |   1.00E-04 |        No
     Delta_Entropy     |   3.69E-05 |   1.00E-04 |       Yes
     Commutator        |   4.55E-05 |   1.00E-05 |        No
     Delta_Fermi_level |   1.87E-01 |   1.00E-03 |        No

  Line search of the free energy minimum:
  Step_type        Step             Free_energy   Predicted_free_energy
.   Initial    0.000000    -3681.25934268398487
.    Trial1    0.381966    -3681.26151089870882
.    Trial2    0.618034    -3681.26198396885911
. Quadratic    0.668620    -3681.26199998777611    -3681.26199917462282

--------------------------------------------------------------------------------
  Iter                              Commutator    Free_energy(A=E-TS)     DeltaA
#    1                          0.000024657277   -3681.26199998777611  -2.66E-03

Step                       =       0.668619861153
Energy                     =   -3681.261965072289
Entropy (-TS)              =      -0.000034915565
Free energy (A=E-TS)       =   -3681.261999987776
Est. 0K Energy 0.5*(E+A)   =   -3681.261982530033
Residual Non-orthogonality =       0.000000000000
Residual N_electrons       =       0.000000000078

Spin          Integrated_Ne            Fermi_level     Delta_Fermi_level
   1      2559.999999999587         0.189412560590              2.01E-03

                           Spin 1          
     Orb      H-eigenvalues     Occupancies
       1 |    -0.5293255674    1.0000000000 | 
                          ------
    1276 |     0.1557714277    0.9999756518 | 
    1277 |     0.1561905829    0.9999722062 | 
    1278 |     0.1562115756    0.9999720214 | 
    1279 |     0.1567475358    0.9999668621 | 
    1280 |     0.1571849098    0.9999619544 | 
                 - Gap at zero temperature -
    1281 |     0.2240449012    0.0000178047 | 
    1282 |     0.2240852168    0.0000175795 | 
    1283 |     0.2240890993    0.0000175580 | 
    1284 |     0.2243388186    0.0000162266 | 
    1285 |     0.2243492430    0.0000161733 | 
                          ------
    2560 |     1.0094886708    0.0000000000 | 

                       |  Abs_value |  Threshold | Converged
     Delta_Free_energy |   2.66E-03 |   1.00E-06 |        No
     Delta_Energy      |   2.66E-03 |   1.00E-04 |        No
     Delta_Entropy     |   1.98E-06 |   1.00E-04 |       Yes
     Commutator        |   2.47E-05 |   1.00E-05 |        No
     Delta_Fermi_level |   2.01E-03 |   1.00E-03 |        No

  Line search of the free energy minimum:
  Step_type        Step             Free_energy   Predicted_free_energy
.   Initial    0.000000    -3681.26199998777611
.    Trial1    0.668620    -3681.26077104996421
.    Trial2    0.255390    -3681.26254179848820
. Quadratic    0.238399    -3681.26254467155240    -3681.26254456482638

--------------------------------------------------------------------------------
  Iter                              Commutator    Free_energy(A=E-TS)     DeltaA
#    2                          0.000012272813   -3681.26254467155240  -5.45E-04

Step                       =       0.238398748300
Energy                     =   -3681.262510019516
Entropy (-TS)              =      -0.000034651815
Free energy (A=E-TS)       =   -3681.262544671552
Est. 0K Energy 0.5*(E+A)   =   -3681.262527345534
Residual Non-orthogonality =       0.000000000000
Residual N_electrons       =      -0.000000000222

Spin          Integrated_Ne            Fermi_level     Delta_Fermi_level
   1      2560.000000001170         0.189652052690              2.39E-04

                           Spin 1          
     Orb      H-eigenvalues     Occupancies
       1 |    -0.5293993718    1.0000000000 | 
                          ------
    1276 |     0.1559464543    0.9999761425 | 
    1277 |     0.1564353873    0.9999721596 | 
    1278 |     0.1564545556    0.9999719906 | 
    1279 |     0.1569214418    0.9999675413 | 
    1280 |     0.1574267609    0.9999619261 | 
                 - Gap at zero temperature -
    1281 |     0.2243340095    0.0000175280 | 
    1282 |     0.2243725823    0.0000173158 | 
    1283 |     0.2243751534    0.0000173017 | 
    1284 |     0.2246334642    0.0000159465 | 
    1285 |     0.2246433922    0.0000158966 | 
                          ------
    2560 |     1.0097210596    0.0000000000 | 

                       |  Abs_value |  Threshold | Converged
     Delta_Free_energy |   5.45E-04 |   1.00E-06 |        No
     Delta_Energy      |   5.45E-04 |   1.00E-04 |        No
     Delta_Entropy     |   2.64E-07 |   1.00E-04 |       Yes
     Commutator        |   1.23E-05 |   1.00E-05 |        No
     Delta_Fermi_level |   2.39E-04 |   1.00E-03 |       Yes

  Line search of the free energy minimum:
  Step_type        Step             Free_energy   Predicted_free_energy
.   Initial    0.000000    -3681.26254467155240
.    Trial1    0.238399    -3681.26266485690621
.    Trial2    0.529305    -3681.26265819746550
. Quadratic    0.372356    -3681.26268268953072    -3681.26268272431162

--------------------------------------------------------------------------------
  Iter                              Commutator    Free_energy(A=E-TS)     DeltaA
#    3                          0.000008352659   -3681.26268268953072  -1.38E-04

Step                       =       0.372356157262
Energy                     =   -3681.262648341475
Entropy (-TS)              =      -0.000034348071
Free energy (A=E-TS)       =   -3681.262682689531
Est. 0K Energy 0.5*(E+A)   =   -3681.262665515503
Residual Non-orthogonality =       0.000000000000
Residual N_electrons       =       0.000000000015

Spin          Integrated_Ne            Fermi_level     Delta_Fermi_level
   1      2559.999999999919         0.189938508999              2.86E-04

                           Spin 1          
     Orb      H-eigenvalues     Occupancies
       1 |    -0.5294766171    1.0000000000 | 
                          ------
    1276 |     0.1561839802    0.9999765082 | 
    1277 |     0.1567067409    0.9999722920 | 
    1278 |     0.1567240664    0.9999721400 | 
    1279 |     0.1571591066    0.9999680376 | 
    1280 |     0.1576964093    0.9999621276 | 
                 - Gap at zero temperature -
    1281 |     0.2246620991    0.0000172990 | 
    1282 |     0.2246987745    0.0000170998 | 
    1283 |     0.2247010819    0.0000170874 | 
    1284 |     0.2249636624    0.0000157277 | 
    1285 |     0.2249731204    0.0000156808 | 
                          ------
    2560 |     1.0100240720    0.0000000000 | 

                       |  Abs_value |  Threshold | Converged
     Delta_Free_energy |   1.38E-04 |   1.00E-06 |        No
     Delta_Energy      |   1.38E-04 |   1.00E-04 |        No
     Delta_Entropy     |   3.04E-07 |   1.00E-04 |       Yes
     Commutator        |   8.35E-06 |   1.00E-05 |       Yes
     Delta_Fermi_level |   2.86E-04 |   1.00E-03 |       Yes

  Line search of the free energy minimum:
  Step_type        Step             Free_energy   Predicted_free_energy
.   Initial    0.000000    -3681.26268268953072
.    Trial1    0.372356    -3681.26272746217910
.    Trial2    0.612095    -3681.26262829605002
. Quadratic    0.255106    -3681.26273948083372    -3681.26273945315188

--------------------------------------------------------------------------------
  Iter                              Commutator    Free_energy(A=E-TS)     DeltaA
#    4                          0.000005509795   -3681.26273948083372  -5.68E-05

Step                       =       0.255106110688
Energy                     =   -3681.262705259832
Entropy (-TS)              =      -0.000034221104
Free energy (A=E-TS)       =   -3681.262739480834
Est. 0K Energy 0.5*(E+A)   =   -3681.262722370333
Residual Non-orthogonality =       0.000000000000
Residual N_electrons       =       0.000000000102

Spin          Integrated_Ne            Fermi_level     Delta_Fermi_level
   1      2559.999999999461         0.190063270671              1.25E-04

                           Spin 1          
[...]
 C   275 -- C   555       -0.10      5.37000
 C   274 -- C   554       -0.10      5.37000
 C   273 -- C   553       -0.10      5.37000
 C   272 -- C   552       -0.10      5.37000
 C   271 -- C   551       -0.10      5.37000
 C   270 -- C   550       -0.10      5.37000
 C   269 -- C   549       -0.10      5.37000
 C   268 -- C   548       -0.10      5.37000
 C   267 -- C   547       -0.10      5.37000
 C   266 -- C   546       -0.10      5.37000
 C   130 -- C   465       -0.09      5.37000
 C   129 -- C   464       -0.09      5.37000
 C   128 -- C   463       -0.09      5.37000
 C   127 -- C   462       -0.09      5.37000
 C   126 -- C   461       -0.09      5.37000
 C   240 -- C   525       -0.09      5.37000
 C   239 -- C   524       -0.09      5.37000
 C   238 -- C   523       -0.09      5.37000
 C   237 -- C   522       -0.09      5.37000
 C   236 -- C   521       -0.09      5.37000
 C    23 -- C   478       -0.09      5.37202
 C    49 -- C   469       -0.09      5.37202
 C    48 -- C   468       -0.09      5.37202
 C    47 -- C   467       -0.09      5.37202
 C    22 -- C   477       -0.09      5.37202
 C    46 -- C   466       -0.09      5.37202
 C    21 -- C   476       -0.09      5.37202
 C    25 -- C   480       -0.09      5.37202
 C    24 -- C   479       -0.09      5.37202
 C    50 -- C   470       -0.09      5.37202
 C    24 -- C   449       -0.09      5.37202
 C     6 -- C   416       -0.09      5.37202
 C    23 -- C   448       -0.09      5.37202
 C    22 -- C   447       -0.09      5.37202
 C    10 -- C   470       -0.09      5.37202
 C     5 -- C   450       -0.09      5.37202
 C    21 -- C   446       -0.09      5.37202
 C    10 -- C   420       -0.09      5.37202
 C     9 -- C   469       -0.09      5.37202
 C     9 -- C   419       -0.09      5.37202
 C     8 -- C   468       -0.09      5.37202
 C     4 -- C   449       -0.09      5.37202
 C     8 -- C   418       -0.09      5.37202
 C   285 -- C   580       -0.09      5.37202
 C   284 -- C   579       -0.09      5.37202
 C   283 -- C   578       -0.09      5.37202
 C   282 -- C   577       -0.09      5.37202
 C   281 -- C   576       -0.09      5.37202
 C     2 -- C   447       -0.09      5.37202
 C     7 -- C   467       -0.09      5.37202
 C   260 -- C   605       -0.09      5.37202
 C   259 -- C   604       -0.09      5.37202
 C   258 -- C   603       -0.09      5.37202
 C   257 -- C   602       -0.09      5.37202
 C   256 -- C   601       -0.09      5.37202
 C     7 -- C   417       -0.09      5.37202
 C     1 -- C   446       -0.09      5.37202
 C     6 -- C   466       -0.09      5.37202
 C    25 -- C   450       -0.09      5.37202
 C     3 -- C   448       -0.09      5.37202
 C   219 -- C   569       -0.09      5.37202
 C   218 -- C   568       -0.09      5.37202
 C   217 -- C   567       -0.09      5.37202
 C   216 -- C   566       -0.09      5.37202
 C   250 -- C   540       -0.09      5.37202
 C   249 -- C   539       -0.09      5.37202
 C   248 -- C   538       -0.09      5.37202
 C   247 -- C   537       -0.09      5.37202
 C   246 -- C   536       -0.09      5.37202
 C   220 -- C   570       -0.09      5.37202
 C   205 -- C   550       -0.09      5.37202
 C   204 -- C   549       -0.09      5.37202
 C   203 -- C   548       -0.09      5.37202
 C   202 -- C   547       -0.09      5.37202
 C   201 -- C   546       -0.09      5.37202
 C    95 -- C   365       -0.09      5.37202
 C    94 -- C   364       -0.09      5.37202
 C    93 -- C   363       -0.09      5.37202
 C    92 -- C   362       -0.09      5.37202
 C    91 -- C   361       -0.09      5.37202
 C    65 -- C   395       -0.09      5.37202
 C    64 -- C   394       -0.09      5.37202
 C    63 -- C   393       -0.09      5.37202
 C    30 -- C   355       -0.09      5.37202
 C    62 -- C   392       -0.09      5.37202
 C    61 -- C   391       -0.09      5.37202
 C    29 -- C   354       -0.09      5.37202
 C   260 -- C   550       -0.09      5.37202
 C   259 -- C   549       -0.09      5.37202
 C    28 -- C   353       -0.09      5.37202
 C   258 -- C   548       -0.09      5.37202
 C   257 -- C   547       -0.09      5.37202
 C   256 -- C   546       -0.09      5.37202
 C    27 -- C   352       -0.09      5.37202
 C    26 -- C   351       -0.09      5.37202
 C    55 -- C   335       -0.09      5.37202
 C    54 -- C   334       -0.09      5.37202
 C    53 -- C   333       -0.09      5.37202
 C   230 -- C   580       -0.09      5.37202
 C   230 -- C   525       -0.09      5.37202
 C   229 -- C   579       -0.09      5.37202
 C   229 -- C   524       -0.09      5.37202
 C   228 -- C   578       -0.09      5.37202
 C    52 -- C   332       -0.09      5.37202
 C   228 -- C   523       -0.09      5.37202
 C   227 -- C   577       -0.09      5.37202
 C   227 -- C   522       -0.09      5.37202
 C   226 -- C   576       -0.09      5.37202
 C   226 -- C   521       -0.09      5.37202
 C    51 -- C   331       -0.09      5.37202
 C   220 -- C   515       -0.09      5.37202
 C   219 -- C   514       -0.09      5.37202
 C   218 -- C   513       -0.09      5.37202
 C   217 -- C   512       -0.09      5.37202
 C   216 -- C   511       -0.09      5.37202
 C   195 -- C   540       -0.09      5.37202
 C   195 -- C   500       -0.09      5.37202
 C   194 -- C   539       -0.09      5.37202
 C   194 -- C   499       -0.09      5.37202
 C   193 -- C   538       -0.09      5.37202
 C   193 -- C   498       -0.09      5.37202
 C   192 -- C   537       -0.09      5.37202
 C   192 -- C   497       -0.09      5.37202
 C   191 -- C   536       -0.09      5.37202
 C   191 -- C   496       -0.09      5.37202
 C   180 -- C   515       -0.09      5.37202
 C   179 -- C   514       -0.09      5.37202
 C   178 -- C   513       -0.09      5.37202
 C   177 -- C   512       -0.09      5.37202
 C   176 -- C   511       -0.09      5.37202
 C   150 -- C   440       -0.09      5.37202
 C   149 -- C   439       -0.09      5.37202
 C   148 -- C   438       -0.09      5.37202
 C   147 -- C   437       -0.09      5.37202
 C   146 -- C   436       -0.09      5.37202
 C   135 -- C   460       -0.09      5.37202
 C   134 -- C   459       -0.09      5.37202
 C   133 -- C   458       -0.09      5.37202
 C   132 -- C   457       -0.09      5.37202
 C   131 -- C   456       -0.09      5.37202
 C    11 -- C   331       -0.09      5.37202
 C    95 -- C   425       -0.09      5.37202
 C    94 -- C   424       -0.09      5.37202
 C    93 -- C   423       -0.09      5.37202
 C    92 -- C   422       -0.09      5.37202
 C    91 -- C   421       -0.09      5.37202
 C    85 -- C   355       -0.09      5.37202
 C    40 -- C   365       -0.09      5.37202
 C    84 -- C   354       -0.09      5.37202
 C    83 -- C   353       -0.09      5.37202
 C    82 -- C   352       -0.09      5.37202
 C    39 -- C   364       -0.09      5.37202
 C    81 -- C   351       -0.09      5.37202
 C    38 -- C   363       -0.09      5.37202
 C    37 -- C   362       -0.09      5.37202
 C    36 -- C   361       -0.09      5.37202
 C    15 -- C   335       -0.09      5.37202
 C    65 -- C   345       -0.09      5.37202
 C    64 -- C   344       -0.09      5.37202
 C    63 -- C   343       -0.09      5.37202
 C    30 -- C   325       -0.09      5.37202
 C    62 -- C   342       -0.09      5.37202
 C    14 -- C   334       -0.09      5.37202
 C    61 -- C   341       -0.09      5.37202
 C    29 -- C   324       -0.09      5.37202
 C    28 -- C   323       -0.09      5.37202
 C    13 -- C   333       -0.09      5.37202
 C    27 -- C   322       -0.09      5.37202
 C   120 -- C   395       -0.09      5.37202
 C    55 -- C   385       -0.09      5.37202
 C   119 -- C   394       -0.09      5.37202
 C   118 -- C   393       -0.09      5.37202
 C   117 -- C   392       -0.09      5.37202
 C    54 -- C   384       -0.09      5.37202
 C    26 -- C   321       -0.09      5.37202
 C   116 -- C   391       -0.09      5.37202
 C    53 -- C   383       -0.09      5.37202
 C    12 -- C   332       -0.09      5.37202
 C    52 -- C   382       -0.09      5.37202
 C    51 -- C   381       -0.09      5.37202
 C   106 -- C   436       -0.09      5.37202
 C   106 -- C   376       -0.09      5.37202
 C    80 -- C   410       -0.09      5.37202
 C    79 -- C   409       -0.09      5.37202
 C    78 -- C   408       -0.09      5.37202
 C    77 -- C   407       -0.09      5.37202
 C    76 -- C   406       -0.09      5.37202
 C   135 -- C   410       -0.09      5.37202
 C   134 -- C   409       -0.09      5.37202
 C   133 -- C   408       -0.09      5.37202
 C   132 -- C   407       -0.09      5.37202
 C   131 -- C   406       -0.09      5.37202
 C   110 -- C   440       -0.09      5.37202
 C   110 -- C   380       -0.09      5.37202
 C   109 -- C   439       -0.09      5.37202
 C   109 -- C   379       -0.09      5.37202
 C   108 -- C   438       -0.09      5.37202
 C   108 -- C   378       -0.09      5.37202
 C   107 -- C   437       -0.09      5.37202
 C   107 -- C   377       -0.09      5.37202
 C   215 -- C   635       -0.09      5.38000
 C   214 -- C   634       -0.09      5.38000
 C   213 -- C   633       -0.09      5.38000
 C   212 -- C   632       -0.09      5.38000
 C   211 -- C   631       -0.09      5.38000
 C   190 -- C   620       -0.09      5.38000
 C   189 -- C   619       -0.09      5.38000
 C   188 -- C   618       -0.09      5.38000
 C   187 -- C   617       -0.09      5.38000
 C   186 -- C   616       -0.09      5.38000
 C   175 -- C   595       -0.09      5.38000
 C   174 -- C   594       -0.09      5.38000
 C   173 -- C   593       -0.09      5.38000
 C   172 -- C   592       -0.09      5.38000
 C   171 -- C   591       -0.09      5.38000
 C   245 -- C   640       -0.09      5.38000
 C   244 -- C   639       -0.09      5.38000
 C   243 -- C   638       -0.09      5.38000
 C   242 -- C   637       -0.09      5.38000
 C   241 -- C   636       -0.09      5.38000
==================================================


=================== Orbital energy and occupancy information ===================

      Total number of orbitals:    2560
        Occupancy sum (kernel):    1279.999999999
   Occupancy sum (eigenvalues):    1279.999999999
                 HOMO-LUMO gap:       0.063996195 Eh
                 Mid-gap level:       0.243181388 Eh

                        Orbital | Energy (Eh) | Occupancy
                            1    -0.477120816   1.0000000
                        .......   ...........   .........
                         1271     0.205910894   0.9999884
                         1272     0.205918926   0.9999883
                         1273     0.206379751   0.9999865
                         1274     0.206387767   0.9999865
                         1275     0.209699276   0.9999615
                         1276     0.209702037   0.9999614
                         1277     0.210158840   0.9999555
                         1278     0.210161537   0.9999554
                         1279     0.210731360   0.9999466
                         1280     0.211183291   0.9999385
                        ....... -- gap at 0K -- .........
                         1281     0.275179486   0.0000272
                         1282     0.275184826   0.0000271
                         1283     0.275438391   0.0000250
                         1284     0.275443794   0.0000250
                         1285     0.275760374   0.0000226
                         1286     0.275773658   0.0000225
                         1287     0.276032546   0.0000208
                         1288     0.276045677   0.0000207
                         1289     0.276207218   0.0000197
                         1290     0.276335301   0.0000188
                        .......   ...........   .........
                         2560     1.121258545   0.0000000

================================================================================

===================== Writing canonical molecular orbitals =====================
| Orbital  Energy (eV)  Norm     |
| HOMO      5.74658976  1.000000 | Writing "3.488156_GO_manual_4x64graphite_HOMO.cube" ... done
Writing "3.488156_GO_manual_4x64graphite_HOMO.dx" ... done
| LUMO      7.48801483  1.000000 | Writing "3.488156_GO_manual_4x64graphite_LUMO.cube" ... done
Writing "3.488156_GO_manual_4x64graphite_LUMO.dx" ... done
================================================================================
 
===================== Density of States (DOS) calculation ======================
Writing "3.488156_GO_manual_4x64graphite_DOS.txt" ...  done
================================================================================
 
Writing bands to file "3.488156_GO_manual_4x64graphite.val_bands" ... done
 
================ Projected Density of States (pDOS) calculation ================
 
Constructing AM resolved functions  ...... done
Writing NGWF plot files in formats: CUBE DX ...  done
 
Performing overlap integrals ...  done
 
Computing pDOS weights ...  done
 
All bands spilling parameter =   3.51 %
Occupancy-weighted spilling parameter =   0.93 %
 
 => Outputting data for OptaDOS <=
 
Writing pDOS weights to file "3.488156_GO_manual_4x64graphite.val_pdos_bin" ... done
 
Writing band gradients to file "3.488156_GO_manual_4x64graphite.val_dome_bin" ... done
 
Writing Castep output cell file to "3.488156_GO_manual_4x64graphite-out.cell" ... done
 
 => Computing Gaussian smeared pDOS <= 
Writing "3.488156_GO_manual_4x64graphite_PDOS.txt" ...  done
 
 => Computing Occupancy-weighted Gaussian smeared pDOS <= 
Writing "3.488156_GO_manual_4x64graphite_occ_PDOS.txt" ...  done
  => Band centres: 
 S band centre of group 1:  -13.837419 eV
 P band centre of group 1:   -6.729157 eV
  Band centres done. <=
  => Integrated number of electrons in each AM band: 
 S num electrons of group 1:  574.534723
 P num electrons of group 1: 1961.578598
  Integrated number of electrons done. <=
================================================================================

------------------------------ TIMING INFORMATION ------------------------------
AVERAGE TIME:    3621.765s on     40 node(s)                                    
TOTAL TIME:      3621.765s on     40 node(s)                                    
================= AVERAGE TIMINGS FROM ALL NODES (CUMULATIVE) ==================
|| TAG                                    #calls    cpu time   %total  Gflops ||
|| work_imbalance                       :     1        0.00s   0.000%  ------ ||
|| paw_tcore_hartree_on_grid            :     1        0.00s   0.000%  ------ ||
|| paw_tcore_density                    :     1        0.01s   0.000%  ------ ||
|| paw_sphere_density_on_grid           :     1        0.01s   0.000%  ------ ||
|| sparse_set_to_garbage                :   159        0.02s   0.001%  ------ ||
|| paw_dij_hartree                      :   331        0.04s   0.001%  ------ ||
|| pseudo_make_structure_factor         :     1        0.05s   0.001%  ------ ||
|| basis_extract_function_from_box      :  1792        0.08s   0.002%  ------ ||
|| paw_species_calc_proj_prec_mat       :     1        0.12s   0.003%  ------ ||
|| paw_dataset_init                     :     1        0.15s   0.004%  ------ ||
|| density_init_guess_real              :     1        0.17s   0.005%  ------ ||
|| ngwfs_initialise_from_radial         :     2        0.67s   0.018%  ------ ||
|| sparse_init                          :     1        0.95s   0.026%  ------ ||
|| dense_normal_eigensolve              :     1        0.96s   0.026%  ------ ||
|| restart_kernel_write                 :    15        0.97s   0.027%  ------ ||
|| hartree_on_grid                      :   248        1.23s   0.034%  ------ ||
|| projectors_init_fftbox_recip         :   141        2.70s   0.075%  ------ ||
|| ewald_calculate_energy               :     1        2.76s   0.076%  ------ ||
|| fourier_apply_box_pair               :  2656        4.40s   0.121% 560.435 ||
|| basis_copy_function_to_box           : 23552        5.10s   0.141%  ------ ||
|| augmentation_screen_dij              :   253        5.47s   0.151%  ------ ||
|| sw_init                              :     1        6.73s   0.186%  ------ ||
|| sparse_embed_hotelling_invert_embed  :    27        7.63s   0.211%  ------ ||
|| ngwf_gradient_coeffs                 :    14        9.87s   0.273%  ------ ||
|| cell_grid_extract_box_real           :  9948       13.59s   0.375%  ------ ||
|| sparse_trace                         :  2998       13.68s   0.378%  ------ ||
|| fourier_apply_cell_backward          :  7659       13.84s   0.382%  67.770 ||
|| fourier_apply_cell_forward           :  7164       15.89s   0.439%  55.189 ||
|| cell_grid_deposit_box_real           : 31920       20.21s   0.558%  ------ ||
|| paw_dij_xc                           :   331       22.53s   0.622%  ------ ||
|| aug_nonlocal_mat                     :   317       32.70s   0.903%  ------ ||
|| density_fftbox_deposit_to_cell       : 15872       40.82s   1.127%  ------ ||
|| augmentation_density_on_grid         :   248       44.51s   1.229%  ------ ||
|| eigenstates_pdos                     :     1       46.73s   1.290%  ------ ||
|| hamiltonian_energy_components        :     3       47.00s   1.298%  ------ ||
|| eigenstates_calculate                :     1       50.77s   1.402%  ------ ||
|| function_ops_brappd_ketppd           :    56       53.60s   1.480%  ------ ||
|| projectors_func_ovlp_box             :    28       62.01s   1.712%  ------ ||
|| nlxc_vdw_energy                      :   494       63.07s   1.741%  ------ ||
|| xc_energy_potential                  :   247       71.35s   1.970%  ------ ||
|| integrals_kinetic                    :    27       90.22s   2.491%  ------ ||
|| properties_calculate                 :     1       91.15s   2.517%  ------ ||
|| dense_eigensolve                     :   217      106.48s   2.940%  ------ ||
|| potential_apply_to_ngwf_batch        :   312      121.44s   3.353%  ------ ||
|| sparse_product                       :  3032      122.38s   3.379%  ------ ||
|| restart_ngwfs_tightbox_output        :    13      165.91s   4.581%  ------ ||
|| basis_dot_function_with_box          : 7.444M     204.66s   5.651%  ------ ||
|| fourier_apply_box                    : 74176      230.36s   6.361% 978.990 ||
|| edft_diag_ngwf_ham                   :   216      239.15s   6.603%  ------ ||
|| projectors_gradient_batch            :    56      253.63s   7.003%  ------ ||
|| integrals_locpot_mat_els_batch       :   312      266.67s   7.363%  ------ ||
|| density_fftbox_interpolate_multiply  : 15872      308.02s   8.505%  ------ ||
|| projectors_grad_precond_batch        :    56      349.15s   9.640%  ------ ||
|| density_batch_interp_deposit         :   992      386.68s  10.677%  ------ ||
|| integrals_locpot_dbl_grid            :    78      389.50s  10.754%  ------ ||
|| edft_apply_smearing_operator         :   216      465.72s  12.859%  ------ ||
|| basis_add_function_to_box            : 21.01M     557.23s  15.386%  ------ ||
|| ngwf_gradient_build_batch            :    56      645.12s  17.812%  ------ ||
|| density_batch_row_sums               :   992      764.57s  21.110%  ------ ||
|| ngwf_gradient_batch                  :    56      858.69s  23.709%  ------ ||
|| ngwf_gradient_lnv                    :    14      887.85s  24.514%  ------ ||
|| density_on_dbl_grid                  :   248     1163.48s  32.125%  ------ ||
|| hamiltonian_lhxc_calculate           :   243     1257.50s  34.721%  ------ ||
|| edft_calculate                       :    14     2098.72s  57.947%  ------ ||
|| ngwf_cg_optimise                     :     1     3506.07s  96.805%  ------ ||
|| total_time                           :     1     3621.76s 100.000%  ------ ||
================================================================================
Overhead of generating timer report: 
- 0 ms averaging over threads,
- 5 ms ensuring consistency across MPI ranks,
- 0 ms printing in order.

Job completed: 26-02-2020 06:10 (-0000)

