 +---------------------------------------------------------------+
 |                                                               |
 |        ####### #     # ####### ####### ####### ######         |
 |        #     # ##    # #          #    #       #     #        |
 |        #     # # #   # #          #    #       #     #        |
 |        #     # #  #  # #####      #    #####   ######         |
 |        #     # #   # # #          #    #       #              |
 |        #     # #    ## #          #    #       #              |
 |        ####### #     # #######    #    ####### #              |
 |                                                               |
 |        Linear-Scaling Ab Initio Total Energy Program          |
 |                                                               |
 |          Release for academic collaborators of ODG            |
 |                                             Version 5.3.2.12  |
 |                                                               |
 +---------------------------------------------------------------+
 |                                                               |
 |  Authors:                                                     |
 |  Jacek Dziedzic, Peter D. Haynes, Nicholas D. M. Hine,        |
 |  Arash. A. Mostofi, Mike C. Payne and Chris-Kriton Skylaris   |
 |                                                               |
 |  Contributors:                                                |
 |  J. Aarons, L. Andrinopoulos, P. W. Avraam, R. A. Bell,       |
 |  A. Bhandari, G. A. Bramley, R. J. Charlton, S. J. Clark,     |
 |  R. J. Clements, G. C. Constantinescu, F. Corsetti,           |
 |  N. Corsini, O. Dieguez, S. M. M. Dubois, K. K. B. Duff,      |
 |  J. M. Escartin, A. Greco, H. Helal, Q. O. Hill, L. P. Lee,   |
 |  J.-H. Li, E. B. Linscott, G. Moynihan, D. D. O`Regan,        |
 |  O. K. Okan, M. J. S. Phipps, C. J. Pickard,                  |
 |  J. C. A. Prentice, M. I. J. Probert, L. E. Ratcliff,         |
 |  M. Robinson, A. Ruiz Serrano, J. S. Spencer, E. W. Tait,     |
 |  G. Teobaldi, D. Turban, V. Vitale, K. A. Wilkinson,          |
 |  C. Weber, J. C. Womack, N. Yeung and T. J. Zuehlsdorff       |
 |                                                               |
 |                                   Copyright (c) 2004-2020     |
 |                                                               |
 |  Please cite:                                                 |
 |  "Introducing ONETEP: Linear-scaling density functional       |
 |   simulations on parallel computers".                         |
 |   C.-K. Skylaris, P. D. Haynes, A. A. Mostofi, M. C. Payne.   |
 |   J. Chem. Phys. 122 084119 (2005).                           |
 |                                                               |
 |          in all publications arising from your use of ONETEP. |
 |                                                               |
 +---------------------------------------------------------------+
 |                                                               |
 |   ONETEP is based on developments described in the following  |
 |   publications:                                               |
 |                                                               |
 |  "Nonorthogonal generalized Wannier function pseudopotential  |
 |   plane-wave method".                                         |
 |   C.-K. Skylaris, A. A. Mostofi, P. D. Haynes, O. Dieguez,    |
 |   M. C. Payne.                                                |
 |   Phys. Rev. B 66 035119 (2002).                              |
 |                                                               |
 |  "Preconditioned iterative minimization for linear-scaling    |
 |   electronic structure calculations".                         |
 |   A. A. Mostofi, P. D. Haynes, C.-K. Skylaris, M. C. Payne.   |
 |   J. Chem. Phys. 119(17), pp.8842-8848 (2003).                |
 |                                                               |
 |  "Total-energy calculations on a real space grid with         |
 |   localized functions and a plane-wave basis".                |
 |   A. A. Mostofi, C.-K. Skylaris, P. D. Haynes, M. C. Payne.   |
 |   Comput. Phys. Commun. 147, pp.788-802 (2002).               |
 |                                                               |
 |  "Accurate kinetic energy evaluation in electronic structure  |
 |   calculations with localized functions on real space grids"  |
 |   C.-K. Skylaris, A. A. Mostofi, P. D. Haynes, C. J. Pickard, |
 |   M. C. Payne.                                                |
 |   Comput. Phys. Commun. 140, pp.315-322 (2001).               |
 |                                                               |
 |  "Accurate ionic forces and geometry optimization in linear-  |
 |   scaling density-functional theory with local orbitals"      |
 |   N. D. M. Hine, M. Robinson, P. D. Haynes, C.-K. Skylaris,   |
 |   M. C. Payne, and A. A. Mostofi.                             |
 |   Phys. Rev. B 83 195102 (2011).                              |
 |                                                               |
 +---------------------------------------------------------------+

Job started: 29-02-2020 12:15 (-0000)
 
Reading parameters from file "3.7832992_GO_manual_4x64graphite.dat" ...

WARNING: "cutoff_energy" not specified, but "psinc_spacing" specified.
         Using the latter to set the KE cutoff energy to  732.32021eV,
         thus *overriding* the default.

... done

If your calculation crashes here, before "Checking processes and threads..."
is displayed, then your stack size is insufficient.
If so, use "ulimit -s unlimited" at runtime.
You can disable this check with "check_stack_size F".

Checking processes and threads...
   Determining the default number of threads...
      No default threads set at compilation time: defaulting to 1.
      OpenMP library call suggests 4 threads.
      Hybrid MPI-OpenMP compilation detected.
      Number of MPI processes > 1.
      OMP_NUM_THREADS environment variable present and
      its value matches the one obtained from the OpenMP library call.
      Using this value as default.
      Default threads: 4
      Default applies to threads_max and threads_num_fftboxes.
      Settings in the input file override this default.
   ... done

   Running with 40 MPI processes.
   There are 10 MPI processes running on the same node as the root process.
   Each MPI process is using: 
               1 threads for simulation cell FFTs.
               1 threads for parallel FFT box operations.
               4 threads for loops over batched FFT box operations.
               4 threads in other parallel regions.
... done

Basic input checks...
Resetting ngwf_cg_rotate to TRUE for EDFT calculations
... done

Reading geometry and species blocks from file "3.7832992_GO_manual_4x64graphite.dat" ...
    
  PSINC grid spacing along a1 set to   0.511215680000a0 from input file.
  PSINC grid spacing along a2 set to   0.531284090000a0 from input file.
  PSINC grid spacing along a3 set to   0.507050640000a0 from input file.
  Number of PPD points along a3 set to 1.  This is 
  the default value, it may have been provided also in the input file.
... done
 Writing xyz coordinates to file "3.7832992_GO_manual_4x64graphite.xyz" ... done


--------------------------------------------------------------------------------
---------------------------------- INPUT FILE ----------------------------------
--------------------------------------------------------------------------------

task : singlepoint                                                              
do_properties : true                                                            
dx_format T                                                                     
edft T                                                                          
output_detail VERBOSE                                                           
write_xyz T                                                                     
xc_functional VDWDF2                                                            
PSINC_SPACING 0.51121568 0.53128409 0.50705064                                  
paw T                                                                           
pdos_max_l = 2                                                                  
dos_smear  0.1 eV                                                               
popn_calculate T                                                                
PDOS_PSEUDOATOMIC T                                                             
PDOS_REDUCE_SWS F                                                               
PDOS_CONSTRUCT_BASIS F                                                          
PDOS_LOWDIN T                                                                   
PDOS_ORTH_ATOM_BLOCKS F                                                         
PDOS_LCAO_OPTIMIZE F                                                            
pdos_optados_output T                                                           
homo_plot 0                                                                     
lumo_plot 0                                                                     
homo_dens_plot -1                                                               
lumo_dens_plot -1                                                               
%BLOCK SPECIES                                                                  
C C 6 4 9.0                                                                     
%ENDBLOCK SPECIES                                                               
%BLOCK SPECIES_POT                                                              
C "~/pp/paw/c_pbe_abinit.paw"                                                   
%ENDBLOCK SPECIES_POT                                                           
%BLOCK SPECIES_ATOMIC_SET                                                       
C "SOLVE conf=2s2 2p2"                                                          
%ENDBLOCK SPECIES_ATOMIC_SET                                                    
%BLOCK LATTICE_CART                                                             
32.21  0.00  0.00                                                               
0.00 18.59  0.00                                                                
0.00  0.00 71.49                                                                
%ENDBLOCK LATTICE_CART                                                          
%BLOCK POSITIONS_ABS                                                            
C  0.00  0.00  3.57                                                             
C  0.00  0.00 17.87                                                             
C  0.00  0.00 32.17                                                             
C  0.00  0.00 46.47                                                             
C  0.00  0.00 60.77                                                             
C  0.00  4.65  3.57                                                             
C  0.00  4.65 17.87                                                             
C  0.00  4.65 32.17                                                             
C  0.00  4.65 46.47                                                             
C  0.00  4.65 60.77                                                             
C  4.03  2.32  3.57                                                             
C  4.03  2.32 17.87                                                             
C  4.03  2.32 32.17                                                             
C  4.03  2.32 46.47                                                             
C  4.03  2.32 60.77                                                             
C  8.05  0.00  3.57                                                             
C  8.05  0.00 17.87                                                             
C  8.05  0.00 32.17                                                             
C  8.05  0.00 46.47                                                             
C  8.05  0.00 60.77                                                             
C  0.00  9.30  3.57                                                             
C  0.00  9.30 17.87                                                             
C  0.00  9.30 32.17                                                             
C  0.00  9.30 46.47                                                             
C  0.00  9.30 60.77                                                             
C  4.03  6.97  3.57                                                             
C  4.03  6.97 17.87                                                             
C  4.03  6.97 32.17                                                             
C  4.03  6.97 46.47                                                             
C  4.03  6.97 60.77                                                             
C  8.05  4.65  3.57                                                             
C  8.05  4.65 17.87                                                             
C  8.05  4.65 32.17                                                             
C  8.05  4.65 46.47                                                             
C  8.05  4.65 60.77                                                             
C 12.08  2.32  3.57                                                             
C 12.08  2.32 17.87                                                             
C 12.08  2.32 32.17                                                             
C 12.08  2.32 46.47                                                             
C 12.08  2.32 60.77                                                             
C 16.10  0.00  3.57                                                             
C 16.10  0.00 17.87                                                             
C 16.10  0.00 32.17                                                             
C 16.10  0.00 46.47                                                             
C 16.10  0.00 60.77                                                             
C  0.00 13.95  3.57                                                             
C  0.00 13.95 17.87                                                             
C  0.00 13.95 32.17                                                             
C  0.00 13.95 46.47                                                             
C  0.00 13.95 60.77                                                             
C  4.03 11.62  3.57                                                             
C  4.03 11.62 17.87                                                             
C  4.03 11.62 32.17                                                             
C  4.03 11.62 46.47                                                             
C  4.03 11.62 60.77                                                             
C  8.05  9.30  3.57                                                             
C  8.05  9.30 17.87                                                             
C  8.05  9.30 32.17                                                             
C  8.05  9.30 46.47                                                             
C  8.05  9.30 60.77                                                             
C 12.08  6.97  3.57                                                             
C 12.08  6.97 17.87                                                             
C 12.08  6.97 32.17                                                             
C 12.08  6.97 46.47                                                             
C 12.08  6.97 60.77                                                             
C 16.10  4.65  3.57                                                             
C 16.10  4.65 17.87                                                             
C 16.10  4.65 32.17                                                             
C 16.10  4.65 46.47                                                             
C 16.10  4.65 60.77                                                             
C 20.13  2.32  3.57                                                             
C 20.13  2.32 17.87                                                             
C 20.13  2.32 32.17                                                             
C 20.13  2.32 46.47                                                             
C 20.13  2.32 60.77                                                             
C 24.16  0.00  3.57                                                             
C 24.16  0.00 17.87                                                             
C 24.16  0.00 32.17                                                             
C 24.16  0.00 46.47                                                             
C 24.16  0.00 60.77                                                             
C  4.03 16.27  3.57                                                             
C  4.03 16.27 17.87                                                             
C  4.03 16.27 32.17                                                             
C  4.03 16.27 46.47                                                             
C  4.03 16.27 60.77                                                             
C  8.05 13.95  3.57                                                             
C  8.05 13.95 17.87                                                             
C  8.05 13.95 32.17                                                             
C  8.05 13.95 46.47                                                             
C  8.05 13.95 60.77                                                             
C 12.08 11.62  3.57                                                             
C 12.08 11.62 17.87                                                             
C 12.08 11.62 32.17                                                             
C 12.08 11.62 46.47                                                             
C 12.08 11.62 60.77                                                             
C 16.10  9.30  3.57                                                             
C 16.10  9.30 17.87                                                             
C 16.10  9.30 32.17                                                             
C 16.10  9.30 46.47                                                             
C 16.10  9.30 60.77                                                             
C 20.13  6.97  3.57                                                             
C 20.13  6.97 17.87                                                             
C 20.13  6.97 32.17                                                             
C 20.13  6.97 46.47                                                             
C 20.13  6.97 60.77                                                             
C 24.16  4.65  3.57                                                             
C 24.16  4.65 17.87                                                             
C 24.16  4.65 32.17                                                             
C 24.16  4.65 46.47                                                             
C 24.16  4.65 60.77                                                             
C 28.18  2.32  3.57                                                             
C 28.18  2.32 17.87                                                             
C 28.18  2.32 32.17                                                             
C 28.18  2.32 46.47                                                             
C 28.18  2.32 60.77                                                             
C 12.08 16.27  3.57                                                             
C 12.08 16.27 17.87                                                             
C 12.08 16.27 32.17                                                             
C 12.08 16.27 46.47                                                             
C 12.08 16.27 60.77                                                             
C 16.10 13.95  3.57                                                             
C 16.10 13.95 17.87                                                             
C 16.10 13.95 32.17                                                             
C 16.10 13.95 46.47                                                             
C 16.10 13.95 60.77                                                             
C 20.13 11.62  3.57                                                             
C 20.13 11.62 17.87                                                             
C 20.13 11.62 32.17                                                             
C 20.13 11.62 46.47                                                             
C 20.13 11.62 60.77                                                             
C 24.16  9.30  3.57                                                             
C 24.16  9.30 17.87                                                             
C 24.16  9.30 32.17                                                             
C 24.16  9.30 46.47                                                             
C 24.16  9.30 60.77                                                             
C 28.18  6.97  3.57                                                             
C 28.18  6.97 17.87                                                             
C 28.18  6.97 32.17                                                             
C 28.18  6.97 46.47                                                             
C 28.18  6.97 60.77                                                             
C 20.13 16.27  3.57                                                             
C 20.13 16.27 17.87                                                             
C 20.13 16.27 32.17                                                             
C 20.13 16.27 46.47                                                             
C 20.13 16.27 60.77                                                             
C 24.16 13.95  3.57                                                             
C 24.16 13.95 17.87                                                             
C 24.16 13.95 32.17                                                             
C 24.16 13.95 46.47                                                             
C 24.16 13.95 60.77                                                             
C 28.18 11.62  3.57                                                             
C 28.18 11.62 17.87                                                             
C 28.18 11.62 32.17                                                             
C 28.18 11.62 46.47                                                             
C 28.18 11.62 60.77                                                             
C 28.18 16.27  3.57                                                             
C 28.18 16.27 17.87                                                             
C 28.18 16.27 32.17                                                             
C 28.18 16.27 46.47                                                             
C 28.18 16.27 60.77                                                             
C  0.00  0.00 10.72                                                             
C  0.00  0.00 25.02                                                             
C  0.00  0.00 39.32                                                             
C  0.00  0.00 53.62                                                             
C  0.00  0.00 67.92                                                             
C  0.00  4.65 10.72                                                             
C  0.00  4.65 25.02                                                             
C  0.00  4.65 39.32                                                             
C  0.00  4.65 53.62                                                             
C  0.00  4.65 67.92                                                             
C  4.03  2.32 10.72                                                             
C  4.03  2.32 25.02                                                             
C  4.03  2.32 39.32                                                             
C  4.03  2.32 53.62                                                             
C  4.03  2.32 67.92                                                             
C  8.05  0.00 10.72                                                             
C  8.05  0.00 25.02                                                             
C  8.05  0.00 39.32                                                             
C  8.05  0.00 53.62                                                             
C  8.05  0.00 67.92                                                             
C  0.00  9.30 10.72                                                             
C  0.00  9.30 25.02                                                             
C  0.00  9.30 39.32                                                             
C  0.00  9.30 53.62                                                             
C  0.00  9.30 67.92                                                             
C  4.03  6.97 10.72                                                             
C  4.03  6.97 25.02                                                             
C  4.03  6.97 39.32                                                             
C  4.03  6.97 53.62                                                             
C  4.03  6.97 67.92                                                             
C  8.05  4.65 10.72                                                             
C  8.05  4.65 25.02                                                             
C  8.05  4.65 39.32                                                             
C  8.05  4.65 53.62                                                             
C  8.05  4.65 67.92                                                             
C 12.08  2.32 10.72                                                             
C 12.08  2.32 25.02                                                             
C 12.08  2.32 39.32                                                             
C 12.08  2.32 53.62                                                             
C 12.08  2.32 67.92                                                             
C 16.10  0.00 10.72                                                             
C 16.10  0.00 25.02                                                             
C 16.10  0.00 39.32                                                             
C 16.10  0.00 53.62                                                             
C 16.10  0.00 67.92                                                             
C  0.00 13.95 10.72                                                             
C  0.00 13.95 25.02                                                             
C  0.00 13.95 39.32                                                             
C  0.00 13.95 53.62                                                             
C  0.00 13.95 67.92                                                             
C  4.03 11.62 10.72                                                             
C  4.03 11.62 25.02                                                             
C  4.03 11.62 39.32                                                             
C  4.03 11.62 53.62                                                             
C  4.03 11.62 67.92                                                             
C  8.05  9.30 10.72                                                             
C  8.05  9.30 25.02                                                             
C  8.05  9.30 39.32                                                             
C  8.05  9.30 53.62                                                             
C  8.05  9.30 67.92                                                             
C 12.08  6.97 10.72                                                             
C 12.08  6.97 25.02                                                             
C 12.08  6.97 39.32                                                             
C 12.08  6.97 53.62                                                             
C 12.08  6.97 67.92                                                             
C 16.10  4.65 10.72                                                             
C 16.10  4.65 25.02                                                             
C 16.10  4.65 39.32                                                             
C 16.10  4.65 53.62                                                             
C 16.10  4.65 67.92                                                             
C 20.13  2.32 10.72                                                             
C 20.13  2.32 25.02                                                             
C 20.13  2.32 39.32                                                             
C 20.13  2.32 53.62                                                             
C 20.13  2.32 67.92                                                             
C 24.16  0.00 10.72                                                             
C 24.16  0.00 25.02                                                             
C 24.16  0.00 39.32                                                             
C 24.16  0.00 53.62                                                             
C 24.16  0.00 67.92                                                             
C  4.03 16.27 10.72                                                             
C  4.03 16.27 25.02                                                             
C  4.03 16.27 39.32                                                             
C  4.03 16.27 53.62                                                             
C  4.03 16.27 67.92                                                             
C  8.05 13.95 10.72                                                             
C  8.05 13.95 25.02                                                             
C  8.05 13.95 39.32                                                             
C  8.05 13.95 53.62                                                             
C  8.05 13.95 67.92                                                             
C 12.08 11.62 10.72                                                             
C 12.08 11.62 25.02                                                             
C 12.08 11.62 39.32                                                             
C 12.08 11.62 53.62                                                             
C 12.08 11.62 67.92                                                             
C 16.10  9.30 10.72                                                             
C 16.10  9.30 25.02                                                             
C 16.10  9.30 39.32                                                             
C 16.10  9.30 53.62                                                             
C 16.10  9.30 67.92                                                             
C 20.13  6.97 10.72                                                             
C 20.13  6.97 25.02                                                             
C 20.13  6.97 39.32                                                             
C 20.13  6.97 53.62                                                             
C 20.13  6.97 67.92                                                             
C 24.16  4.65 10.72                                                             
C 24.16  4.65 25.02                                                             
C 24.16  4.65 39.32                                                             
C 24.16  4.65 53.62                                                             
C 24.16  4.65 67.92                                                             
C 28.18  2.32 10.72                                                             
C 28.18  2.32 25.02                                                             
C 28.18  2.32 39.32                                                             
C 28.18  2.32 53.62                                                             
C 28.18  2.32 67.92                                                             
C 12.08 16.27 10.72                                                             
C 12.08 16.27 25.02                                                             
C 12.08 16.27 39.32                                                             
C 12.08 16.27 53.62                                                             
C 12.08 16.27 67.92                                                             
C 16.10 13.95 10.72                                                             
C 16.10 13.95 25.02                                                             
C 16.10 13.95 39.32                                                             
C 16.10 13.95 53.62                                                             
C 16.10 13.95 67.92                                                             
C 20.13 11.62 10.72                                                             
C 20.13 11.62 25.02                                                             
C 20.13 11.62 39.32                                                             
C 20.13 11.62 53.62                                                             
C 20.13 11.62 67.92                                                             
C 24.16  9.30 10.72                                                             
C 24.16  9.30 25.02                                                             
C 24.16  9.30 39.32                                                             
C 24.16  9.30 53.62                                                             
C 24.16  9.30 67.92                                                             
C 28.18  6.97 10.72                                                             
C 28.18  6.97 25.02                                                             
C 28.18  6.97 39.32                                                             
C 28.18  6.97 53.62                                                             
C 28.18  6.97 67.92                                                             
C 20.13 16.27 10.72                                                             
C 20.13 16.27 25.02                                                             
C 20.13 16.27 39.32                                                             
C 20.13 16.27 53.62                                                             
C 20.13 16.27 67.92                                                             
C 24.16 13.95 10.72                                                             
C 24.16 13.95 25.02                                                             
C 24.16 13.95 39.32                                                             
C 24.16 13.95 53.62                                                             
C 24.16 13.95 67.92                                                             
C 28.18 11.62 10.72                                                             
C 28.18 11.62 25.02                                                             
C 28.18 11.62 39.32                                                             
C 28.18 11.62 53.62                                                             
C 28.18 11.62 67.92                                                             
C 28.18 16.27 10.72                                                             
C 28.18 16.27 25.02                                                             
C 28.18 16.27 39.32                                                             
C 28.18 16.27 53.62                                                             
C 28.18 16.27 67.92                                                             
C  1.34  2.32  3.57                                                             
C  1.34  2.32 17.87                                                             
C  1.34  2.32 32.17                                                             
C  1.34  2.32 46.47                                                             
C  1.34  2.32 60.77                                                             
C  5.37  0.00  3.57                                                             
C  5.37  0.00 17.87                                                             
C  5.37  0.00 32.17                                                             
C  5.37  0.00 46.47                                                             
C  5.37  0.00 60.77                                                             
C  1.34  6.97  3.57                                                             
C  1.34  6.97 17.87                                                             
C  1.34  6.97 32.17                                                             
C  1.34  6.97 46.47                                                             
C  1.34  6.97 60.77                                                             
C  5.37  4.65  3.57                                                             
C  5.37  4.65 17.87                                                             
C  5.37  4.65 32.17                                                             
C  5.37  4.65 46.47                                                             
C  5.37  4.65 60.77                                                             
C  9.39  2.32  3.57                                                             
C  9.39  2.32 17.87                                                             
C  9.39  2.32 32.17                                                             
C  9.39  2.32 46.47                                                             
C  9.39  2.32 60.77                                                             
C 13.42  0.00  3.57                                                             
C 13.42  0.00 17.87                                                             
C 13.42  0.00 32.17                                                             
C 13.42  0.00 46.47                                                             
C 13.42  0.00 60.77                                                             
C  1.34 11.62  3.57                                                             
C  1.34 11.62 17.87                                                             
C  1.34 11.62 32.17                                                             
C  1.34 11.62 46.47                                                             
C  1.34 11.62 60.77                                                             
C  5.37  9.30  3.57                                                             
C  5.37  9.30 17.87                                                             
C  5.37  9.30 32.17                                                             
C  5.37  9.30 46.47                                                             
C  5.37  9.30 60.77                                                             
C  9.39  6.97  3.57                                                             
C  9.39  6.97 17.87                                                             
C  9.39  6.97 32.17                                                             
C  9.39  6.97 46.47                                                             
C  9.39  6.97 60.77                                                             
C 13.42  4.65  3.57                                                             
C 13.42  4.65 17.87                                                             
C 13.42  4.65 32.17                                                             
C 13.42  4.65 46.47                                                             
C 13.42  4.65 60.77                                                             
C 17.45  2.32  3.57                                                             
C 17.45  2.32 17.87                                                             
C 17.45  2.32 32.17                                                             
C 17.45  2.32 46.47                                                             
C 17.45  2.32 60.77                                                             
C 21.47  0.00  3.57                                                             
C 21.47  0.00 17.87                                                             
C 21.47  0.00 32.17                                                             
C 21.47  0.00 46.47                                                             
C 21.47  0.00 60.77                                                             
C  1.34 16.27  3.57                                                             
C  1.34 16.27 17.87                                                             
C  1.34 16.27 32.17                                                             
C  1.34 16.27 46.47                                                             
C  1.34 16.27 60.77                                                             
C  5.37 13.95  3.57                                                             
C  5.37 13.95 17.87                                                             
C  5.37 13.95 32.17                                                             
C  5.37 13.95 46.47                                                             
C  5.37 13.95 60.77                                                             
C  9.39 11.62  3.57                                                             
C  9.39 11.62 17.87                                                             
C  9.39 11.62 32.17                                                             
C  9.39 11.62 46.47                                                             
C  9.39 11.62 60.77                                                             
C 13.42  9.30  3.57                                                             
C 13.42  9.30 17.87                                                             
C 13.42  9.30 32.17                                                             
C 13.42  9.30 46.47                                                             
C 13.42  9.30 60.77                                                             
C 17.45  6.97  3.57                                                             
C 17.45  6.97 17.87                                                             
C 17.45  6.97 32.17                                                             
C 17.45  6.97 46.47                                                             
C 17.45  6.97 60.77                                                             
C 21.47  4.65  3.57                                                             
C 21.47  4.65 17.87                                                             
C 21.47  4.65 32.17                                                             
C 21.47  4.65 46.47                                                             
C 21.47  4.65 60.77                                                             
C 25.50  2.32  3.57                                                             
C 25.50  2.32 17.87                                                             
C 25.50  2.32 32.17                                                             
C 25.50  2.32 46.47                                                             
C 25.50  2.32 60.77                                                             
C 29.52  0.00  3.57                                                             
C 29.52  0.00 17.87                                                             
C 29.52  0.00 32.17                                                             
C 29.52  0.00 46.47                                                             
C 29.52  0.00 60.77                                                             
C  9.39 16.27  3.57                                                             
C  9.39 16.27 17.87                                                             
C  9.39 16.27 32.17                                                             
C  9.39 16.27 46.47                                                             
C  9.39 16.27 60.77                                                             
C 13.42 13.95  3.57                                                             
C 13.42 13.95 17.87                                                             
C 13.42 13.95 32.17                                                             
C 13.42 13.95 46.47                                                             
C 13.42 13.95 60.77                                                             
C 17.45 11.62  3.57                                                             
C 17.45 11.62 17.87                                                             
C 17.45 11.62 32.17                                                             
C 17.45 11.62 46.47                                                             
C 17.45 11.62 60.77                                                             
C 21.47  9.30  3.57                                                             
C 21.47  9.30 17.87                                                             
C 21.47  9.30 32.17                                                             
C 21.47  9.30 46.47                                                             
C 21.47  9.30 60.77                                                             
C 25.50  6.97  3.57                                                             
C 25.50  6.97 17.87                                                             
C 25.50  6.97 32.17                                                             
C 25.50  6.97 46.47                                                             
C 25.50  6.97 60.77                                                             
C 29.52  4.65  3.57                                                             
C 29.52  4.65 17.87                                                             
C 29.52  4.65 32.17                                                             
C 29.52  4.65 46.47                                                             
C 29.52  4.65 60.77                                                             
C 17.45 16.27  3.57                                                             
C 17.45 16.27 17.87                                                             
C 17.45 16.27 32.17                                                             
C 17.45 16.27 46.47                                                             
C 17.45 16.27 60.77                                                             
C 21.47 13.95  3.57                                                             
C 21.47 13.95 17.87                                                             
C 21.47 13.95 32.17                                                             
C 21.47 13.95 46.47                                                             
C 21.47 13.95 60.77                                                             
C 25.50 11.62  3.57                                                             
C 25.50 11.62 17.87                                                             
C 25.50 11.62 32.17                                                             
C 25.50 11.62 46.47                                                             
C 25.50 11.62 60.77                                                             
C 29.52  9.30  3.57                                                             
C 29.52  9.30 17.87                                                             
C 29.52  9.30 32.17                                                             
C 29.52  9.30 46.47                                                             
C 29.52  9.30 60.77                                                             
C 25.50 16.27  3.57                                                             
C 25.50 16.27 17.87                                                             
C 25.50 16.27 32.17                                                             
C 25.50 16.27 46.47                                                             
C 25.50 16.27 60.77                                                             
C 29.52 13.95  3.57                                                             
C 29.52 13.95 17.87                                                             
C 29.52 13.95 32.17                                                             
C 29.52 13.95 46.47                                                             
C 29.52 13.95 60.77                                                             
C  2.68  0.00 10.72                                                             
C  2.68  0.00 25.02                                                             
C  2.68  0.00 39.32                                                             
C  2.68  0.00 53.62                                                             
C  2.68  0.00 67.92                                                             
C  2.68  4.65 10.72                                                             
C  2.68  4.65 25.02                                                             
C  2.68  4.65 39.32                                                             
C  2.68  4.65 53.62                                                             
C  2.68  4.65 67.92                                                             
C  6.71  2.32 10.72                                                             
C  6.71  2.32 25.02                                                             
C  6.71  2.32 39.32                                                             
C  6.71  2.32 53.62                                                             
C  6.71  2.32 67.92                                                             
C 10.74  0.00 10.72                                                             
C 10.74  0.00 25.02                                                             
C 10.74  0.00 39.32                                                             
C 10.74  0.00 53.62                                                             
C 10.74  0.00 67.92                                                             
C  2.68  9.30 10.72                                                             
C  2.68  9.30 25.02                                                             
C  2.68  9.30 39.32                                                             
C  2.68  9.30 53.62                                                             
C  2.68  9.30 67.92                                                             
C  6.71  6.97 10.72                                                             
C  6.71  6.97 25.02                                                             
C  6.71  6.97 39.32                                                             
C  6.71  6.97 53.62                                                             
C  6.71  6.97 67.92                                                             
C 10.74  4.65 10.72                                                             
C 10.74  4.65 25.02                                                             
C 10.74  4.65 39.32                                                             
C 10.74  4.65 53.62                                                             
C 10.74  4.65 67.92                                                             
C 14.76  2.32 10.72                                                             
C 14.76  2.32 25.02                                                             
C 14.76  2.32 39.32                                                             
C 14.76  2.32 53.62                                                             
C 14.76  2.32 67.92                                                             
C 18.79  0.00 10.72                                                             
C 18.79  0.00 25.02                                                             
C 18.79  0.00 39.32                                                             
C 18.79  0.00 53.62                                                             
C 18.79  0.00 67.92                                                             
C  2.68 13.95 10.72                                                             
C  2.68 13.95 25.02                                                             
C  2.68 13.95 39.32                                                             
C  2.68 13.95 53.62                                                             
C  2.68 13.95 67.92                                                             
C  6.71 11.62 10.72                                                             
C  6.71 11.62 25.02                                                             
C  6.71 11.62 39.32                                                             
C  6.71 11.62 53.62                                                             
C  6.71 11.62 67.92                                                             
C 10.74  9.30 10.72                                                             
C 10.74  9.30 25.02                                                             
C 10.74  9.30 39.32                                                             
C 10.74  9.30 53.62                                                             
C 10.74  9.30 67.92                                                             
C 14.76  6.97 10.72                                                             
C 14.76  6.97 25.02                                                             
C 14.76  6.97 39.32                                                             
C 14.76  6.97 53.62                                                             
C 14.76  6.97 67.92                                                             
C 18.79  4.65 10.72                                                             
C 18.79  4.65 25.02                                                             
C 18.79  4.65 39.32                                                             
C 18.79  4.65 53.62                                                             
C 18.79  4.65 67.92                                                             
C 22.81  2.32 10.72                                                             
C 22.81  2.32 25.02                                                             
C 22.81  2.32 39.32                                                             
C 22.81  2.32 53.62                                                             
C 22.81  2.32 67.92                                                             
C 26.84  0.00 10.72                                                             
C 26.84  0.00 25.02                                                             
C 26.84  0.00 39.32                                                             
C 26.84  0.00 53.62                                                             
C 26.84  0.00 67.92                                                             
C  6.71 16.27 10.72                                                             
C  6.71 16.27 25.02                                                             
C  6.71 16.27 39.32                                                             
C  6.71 16.27 53.62                                                             
C  6.71 16.27 67.92                                                             
C 10.74 13.95 10.72                                                             
C 10.74 13.95 25.02                                                             
C 10.74 13.95 39.32                                                             
C 10.74 13.95 53.62                                                             
C 10.74 13.95 67.92                                                             
C 14.76 11.62 10.72                                                             
C 14.76 11.62 25.02                                                             
C 14.76 11.62 39.32                                                             
C 14.76 11.62 53.62                                                             
C 14.76 11.62 67.92                                                             
C 18.79  9.30 10.72                                                             
C 18.79  9.30 25.02                                                             
C 18.79  9.30 39.32                                                             
C 18.79  9.30 53.62                                                             
C 18.79  9.30 67.92                                                             
C 22.81  6.97 10.72                                                             
C 22.81  6.97 25.02                                                             
C 22.81  6.97 39.32                                                             
C 22.81  6.97 53.62                                                             
C 22.81  6.97 67.92                                                             
C 26.84  4.65 10.72                                                             
C 26.84  4.65 25.02                                                             
C 26.84  4.65 39.32                                                             
C 26.84  4.65 53.62                                                             
C 26.84  4.65 67.92                                                             
C 30.86  2.32 10.72                                                             
C 30.86  2.32 25.02                                                             
C 30.86  2.32 39.32                                                             
C 30.86  2.32 53.62                                                             
C 30.86  2.32 67.92                                                             
C 14.76 16.27 10.72                                                             
C 14.76 16.27 25.02                                                             
C 14.76 16.27 39.32                                                             
C 14.76 16.27 53.62                                                             
C 14.76 16.27 67.92                                                             
C 18.79 13.95 10.72                                                             
C 18.79 13.95 25.02                                                             
C 18.79 13.95 39.32                                                             
C 18.79 13.95 53.62                                                             
C 18.79 13.95 67.92                                                             
C 22.81 11.62 10.72                                                             
C 22.81 11.62 25.02                                                             
C 22.81 11.62 39.32                                                             
C 22.81 11.62 53.62                                                             
C 22.81 11.62 67.92                                                             
C 26.84  9.30 10.72                                                             
C 26.84  9.30 25.02                                                             
C 26.84  9.30 39.32                                                             
C 26.84  9.30 53.62                                                             
C 26.84  9.30 67.92                                                             
C 30.86  6.97 10.72                                                             
C 30.86  6.97 25.02                                                             
C 30.86  6.97 39.32                                                             
C 30.86  6.97 53.62                                                             
C 30.86  6.97 67.92                                                             
C 22.81 16.27 10.72                                                             
C 22.81 16.27 25.02                                                             
C 22.81 16.27 39.32                                                             
C 22.81 16.27 53.62                                                             
C 22.81 16.27 67.92                                                             
C 26.84 13.95 10.72                                                             
C 26.84 13.95 25.02                                                             
C 26.84 13.95 39.32                                                             
C 26.84 13.95 53.62                                                             
C 26.84 13.95 67.92                                                             
C 30.86 11.62 10.72                                                             
C 30.86 11.62 25.02                                                             
C 30.86 11.62 39.32                                                             
C 30.86 11.62 53.62                                                             
C 30.86 11.62 67.92                                                             
C 30.86 16.27 10.72                                                             
C 30.86 16.27 25.02                                                             
C 30.86 16.27 39.32                                                             
C 30.86 16.27 53.62                                                             
C 30.86 16.27 67.92                                                             
%ENDBLOCK POSITIONS_ABS                                                         

--------------------------------------------------------------------------------
-------------------------------- END INPUT FILE --------------------------------
--------------------------------------------------------------------------------


 
<<<<<<<<<<<<<<<<<<<<<<<<<<<<<<<<< Full system >>>>>>>>>>>>>>>>>>>>>>>>>>>>>>>>>>
<<<<<<<<<<<<<<<<<<<<<<<<<<< PAW Dataset information >>>>>>>>>>>>>>>>>>>>>>>>>>>
File: ~/pp/paw/c_pbe_abinit.paw; rc = 1.25 bohr; shape type =  3; rshape = 1.25 bohr;
  Atomic number:  6;  ionic charge:  4.000000
    Partial Wave 1: l = 0
    Partial Wave 2: l = 0
    Partial Wave 3: l = 1
    Partial Wave 4: l = 1
  Core charge supplied for Nonlinear Core Corrections
<<<<<<<<<<<<<<<<<<<<<<<<<<<<<<<<<<<<<<< >>>>>>>>>>>>>>>>>>>>>>>>>>>>>>>>>>>>>>>

-------------------------- Atom counting information ---------------------------
Symbol    Natoms    Nngwfs    Nprojs
  C        640      2560      5120
.......   ......    ......    ......
Totals:    640      2560      5120
--------------------------------------------------------------------------------

=============================== PSINC grid sizes ===============================
                      Simulation cell:   63 x  35 x 141
                              FFT-box:   63 x  35 x 117
                                  PPD:    7 x   5 x   1
Grid space d1=  0.511269841270a0 (KE cutoff=  29.06054Eh = 790.77748eV)
Grid space d2=  0.531142857143a0 (KE cutoff=  26.92659Eh = 732.70972eV)
Grid space d3=  0.507021276596a0 (KE cutoff=  29.54960Eh = 804.08558eV)
================================================================================
  
WARNING in cell_grid_distribute:
Average of less than one 23-slab per node, so workload cannot be
equally balanced between nodes.

********************* Fourier parallelisation information **********************
       Coarse grid (whole simulation cell) dimensions:     63    35   141
          Real-space ('12') slabs/node (min max mean):      3     4     3
         Recip-space ('23') slabs/node (min max mean):      0     1     0
********************************************************************************

********************* Fourier parallelisation information **********************
       Double grid (whole simulation cell) dimensions:    126    70   282
          Real-space ('12') slabs/node (min max mean):      7     8     7
         Recip-space ('23') slabs/node (min max mean):      1     2     1
********************************************************************************

Atom SCF Calculation for C  : Z (AE atom) =   6 : Z (PS atom) =   4
Config String: 2s2 2p2
Orbitals (num,occ):  2     2.00 2.00
Orbitals   (num,l):  2        0    1
Real-space Grid (nr,dr,rmax): 1293    0.0069659443    9.0000000000
Spherical Bessel Basis (nsws,lmax,cutoff):   37    2  161.4736382572
Confining potential (l,width,scale):  0    3.0000000000  100.0000000000
Confining potential (l,width,scale):  1    3.0000000000  100.0000000000
  1         -5.4691149987   -1.3647045835    4.5135257941   -1.6713568800
  2         -5.5214542834   -1.4154291535    4.4635199061   -1.6585170582
  3         -5.5221055910   -1.4439161209    4.4342087028   -1.6520281659
  4         -5.5287901521   -1.4522301802    4.4259176063   -1.6507873939
  5         -5.5308251003   -1.4557840400    4.4224142384   -1.6502632738
  6         -5.5317252094   -1.4571386008    4.4211068249   -1.6500892907
  7         -5.5320765973   -1.4576738924    4.4205997642   -1.6500256779
  8         -5.5322192721   -1.4578833190    4.4204056023   -1.6500032912
  9         -5.5322765240   -1.4579657561    4.4203308649   -1.6499954152
 10         -5.5322995843   -1.4579982639    4.4203020904   -1.6499927055
 11         -5.5323088576   -1.4580111317    4.4202909828   -1.6499917962
 12         -5.5323125859   -1.4580162439    4.4202866844   -1.6499915030
 13         -5.5323140836   -1.4580182832    4.4202850159   -1.6499914143
 14         -5.5323146847   -1.4580191002    4.4202843659   -1.6499913905
 15         -5.5323149258   -1.4580194290    4.4202841117   -1.6499913858
 16         -5.5323150224   -1.4580195619    4.4202840119   -1.6499913859
Atom SCF converged after  16 iterations to a total energy of     -5.53231502

Determining parallel strategy ...
... using space-filling curve
... NGWF load balancing: max     64;  min     64;  average     64
... Projector load balancing: max    128;  min    128;  average    128
... done
Calculating Ewald energy ...
              Ewald: real-space energy =    9485.797634
        Ewald: reciprocal-space energy =       0.411219
         Ewald: (sum_charge)**2 Energy =   10869.714563
         Ewald: (sum_charge**2) Energy =     859.326388
                          Ewald Energy =   -2242.832099
Basis initialisation ...... NGWF spheres initialised
... Projector spheres initialised
... NGWF tight boxes initialised
... Projector tight boxes initialised
... Tight-boxes gathered
... NGWF basis size (local,global):     691636  27895872
... PAW projector initialisation
... done

============================= Charge Augmentation ==============================
                           Aug box size:   11 x  11 x  11
================================================================================

========================== Sparse matrix information ===========================
                        Overlap matrix filling:  40.94%
                        Density kernel filling: 100.00%
              NGWF-Proj overlap matrix filling:  12.19%
                    Aug Overlap matrix filling:  47.03%
                    Hamiltonian matrix filling:  47.03%
                  NGWF diagonal matrix filling:   0.16%
                             KS matrix filling: 100.00% 
                           KSKS matrix filling: 100.00% 
================================================================================

Sparse matrix initialisation ... done
NGWF initialisation ...... done
============ Calculation of NGWF S^-1 using Hotelling algorithm ================ 
         Iteration  |  Frobenius norm and Maximum abs value    (of I-S*S_n^-1)   
               1       0.48942133E+02     0.97446449E+00
               2       0.47636868E+02     0.95078071E+00
               3       0.45705248E+02     0.90813023E+00
               4       0.43234654E+02     0.83738054E+00
               5       0.40296687E+02     0.73314425E+00
               6       0.36915788E+02     0.67262554E+00
               7       0.33435269E+02     0.62595902E+00
               8       0.30085203E+02     0.58599154E+00
               9       0.26399289E+02     0.53944710E+00
              10       0.21678175E+02     0.46504151E+00
              11       0.15587440E+02     0.34899278E+00
              12       0.88068531E+01     0.20176021E+00
              13       0.32462932E+01     0.72405127E-01
              14       0.52653054E+00     0.10769760E-01
              15       0.16296337E-01     0.29183472E-03
              16       0.19912308E-04     0.27181896E-06
              17       0.45183767E-10     0.37569947E-12
================================================================================
Calculating core density ...
================================= Core Density =================================
               Core den box size:   21 x  21 x  21
================================================================================
 ... done
Up spin density kernel initialisation ...... done

Writing density kernel to file "3.7832992_GO_manual_4x64graphite.dkn" ... done

>>> Optimising kernel for current NGWFs:

--------------------------- Ensemble-DFT optimisation --------------------------
Running ScaLAPACK on   40 processor(s).

--------------------------------------------------------------------------------
  Iter                              Commutator    Free_energy(A=E-TS)     DeltaA
#    0                          0.000047950024   -3679.91614825469196  -3.68E+03

Step                       =       0.381966011250
Energy                     =   -3679.916116395891
Entropy (-TS)              =      -0.000031859020
Free energy (A=E-TS)       =   -3679.916148254692
Est. 0K Energy 0.5*(E+A)   =   -3679.916132325291
Residual Non-orthogonality =       0.000000000000
Residual N_electrons       =       0.000000000218

Spin          Integrated_Ne            Fermi_level     Delta_Fermi_level
   1      2559.999999998547         0.150108428593              1.50E-01

                           Spin 1          
     Orb      H-eigenvalues     Occupancies
       1 |    -0.5648462643    1.0000000000 | 
                          ------
    1276 |     0.1154047519    0.9999825919 | 
    1277 |     0.1160095445    0.9999789287 | 
    1278 |     0.1160275580    0.9999788085 | 
    1279 |     0.1160297632    0.9999787937 | 
    1280 |     0.1166533481    0.9999741786 | 
                 - Gap at zero temperature -
    1281 |     0.1856936599    0.0000131783 | 
    1282 |     0.1857015027    0.0000131457 | 
    1283 |     0.1857187476    0.0000130743 | 
    1284 |     0.1858706242    0.0000124621 | 
    1285 |     0.1858745902    0.0000124465 | 
                          ------
    2560 |     0.9701895696    0.0000000000 | 

                       |  Abs_value |  Threshold | Converged
     Delta_Free_energy |   3.68E+03 |   1.00E-06 |        No
     Delta_Energy      |   3.68E+03 |   1.00E-04 |        No
     Delta_Entropy     |   3.19E-05 |   1.00E-04 |       Yes
     Commutator        |   4.80E-05 |   1.00E-05 |        No
     Delta_Fermi_level |   1.50E-01 |   1.00E-03 |        No

  Line search of the free energy minimum:
  Step_type        Step             Free_energy   Predicted_free_energy
.   Initial    0.000000    -3679.91614825469196
.    Trial1    0.381966    -3679.91866758498054
.    Trial2    0.618034    -3679.91937816077279
. Quadratic    0.759411    -3679.91949684437486    -3679.91949412194299

--------------------------------------------------------------------------------
  Iter                              Commutator    Free_energy(A=E-TS)     DeltaA
#    1                          0.000023533979   -3679.91949684437486  -3.35E-03

Step                       =       0.759411011651
Energy                     =   -3679.919466206196
Entropy (-TS)              =      -0.000030638252
Free energy (A=E-TS)       =   -3679.919496844375
Est. 0K Energy 0.5*(E+A)   =   -3679.919481525286
Residual Non-orthogonality =       0.000000000000
Residual N_electrons       =       0.000000000073

Spin          Integrated_Ne            Fermi_level     Delta_Fermi_level
   1      2559.999999999511         0.149591165740             -5.17E-04

                           Spin 1          
     Orb      H-eigenvalues     Occupancies
       1 |    -0.5689070684    1.0000000000 | 
                          ------
    1276 |     0.1148251579    0.9999829311 | 
    1277 |     0.1152370674    0.9999805602 | 
    1278 |     0.1152488928    0.9999804874 | 
    1279 |     0.1154404561    0.9999792707 | 
    1280 |     0.1158645805    0.9999763000 | 
                 - Gap at zero temperature -
    1281 |     0.1852089468    0.0000130435 | 
    1282 |     0.1852409841    0.0000129122 | 
    1283 |     0.1852501233    0.0000128750 | 
    1284 |     0.1854011964    0.0000122752 | 
    1285 |     0.1854168379    0.0000122148 | 
                          ------
    2560 |     0.9677326033    0.0000000000 | 

                       |  Abs_value |  Threshold | Converged
     Delta_Free_energy |   3.35E-03 |   1.00E-06 |        No
     Delta_Energy      |   3.35E-03 |   1.00E-04 |        No
     Delta_Entropy     |   1.22E-06 |   1.00E-04 |       Yes
     Commutator        |   2.35E-05 |   1.00E-05 |        No
     Delta_Fermi_level |   5.17E-04 |   1.00E-03 |       Yes

  Line search of the free energy minimum:
  Step_type        Step             Free_energy   Predicted_free_energy
.   Initial    0.000000    -3679.91949684437486
.    Trial1    0.759411    -3679.91733474465309
.    Trial2    0.290069    -3679.91999600776762
. Quadratic    0.233441    -3679.92002744338743    -3679.92002721815925

--------------------------------------------------------------------------------
  Iter                              Commutator    Free_energy(A=E-TS)     DeltaA
#    2                          0.000009977562   -3679.92002744338743  -5.31E-04

Step                       =       0.233440685024
Energy                     =   -3679.919996910211
Entropy (-TS)              =      -0.000030533405
Free energy (A=E-TS)       =   -3679.920027443387
Est. 0K Energy 0.5*(E+A)   =   -3679.920012176799
Residual Non-orthogonality =       0.000000000000
Residual N_electrons       =       0.000000000229

Spin          Integrated_Ne            Fermi_level     Delta_Fermi_level
   1      2559.999999998471         0.149568990186             -2.22E-05

                           Spin 1          
     Orb      H-eigenvalues     Occupancies
       1 |    -0.5691979526    1.0000000000 | 
                          ------
    1276 |     0.1147459454    0.9999832358 | 
    1277 |     0.1152371153    0.9999804233 | 
    1278 |     0.1152490478    0.9999803494 | 
    1279 |     0.1153598116    0.9999796499 | 
    1280 |     0.1158634304    0.9999761422 | 
                 - Gap at zero temperature -
    1281 |     0.1852338142    0.0000128512 | 
    1282 |     0.1852613093    0.0000127401 | 
    1283 |     0.1852728332    0.0000126938 | 
    1284 |     0.1854266960    0.0000120918 | 
    1285 |     0.1854403447    0.0000120398 | 
                          ------
    2560 |     0.9675526460    0.0000000000 | 

                       |  Abs_value |  Threshold | Converged
     Delta_Free_energy |   5.31E-04 |   1.00E-06 |        No
     Delta_Energy      |   5.31E-04 |   1.00E-04 |        No
     Delta_Entropy     |   1.05E-07 |   1.00E-04 |       Yes
     Commutator        |   9.98E-06 |   1.00E-05 |       Yes
     Delta_Fermi_level |   2.22E-05 |   1.00E-03 |       Yes

  Line search of the free energy minimum:
  Step_type        Step             Free_energy   Predicted_free_energy
.   Initial    0.000000    -3679.92002744338743
.    Trial1    0.233441    -3679.92010833650284
.    Trial2    0.526240    -3679.92011958169223
. Quadratic    0.412637    -3679.92012712635415    -3679.92012713809481

--------------------------------------------------------------------------------
  Iter                              Commutator    Free_energy(A=E-TS)     DeltaA
#    3                          0.000006351701   -3679.92012712635415  -9.97E-05

Step                       =       0.412637256370
Energy                     =   -3679.920096736462
Entropy (-TS)              =      -0.000030389768
Free energy (A=E-TS)       =   -3679.920127126354
Est. 0K Energy 0.5*(E+A)   =   -3679.920111931408
Residual Non-orthogonality =       0.000000000000
Residual N_electrons       =      -0.000000000124

Spin          Integrated_Ne            Fermi_level     Delta_Fermi_level
   1      2560.000000000828         0.149537080455             -3.19E-05

                           Spin 1          
     Orb      H-eigenvalues     Occupancies
       1 |    -0.5695809000    1.0000000000 | 
                          ------
    1276 |     0.1146703478    0.9999834655 | 
    1277 |     0.1152060178    0.9999804182 | 
    1278 |     0.1152181083    0.9999803433 | 
    1279 |     0.1152826337    0.9999799387 | 
    1280 |     0.1158309847    0.9999761462 | 
                 - Gap at zero temperature -
    1281 |     0.1852394252    0.0000126998 | 
    1282 |     0.1852617710    0.0000126105 | 
    1283 |     0.1852760268    0.0000125539 | 
    1284 |     0.1854324663    0.0000119488 | 
    1285 |     0.1854437072    0.0000119065 | 
                          ------
    2560 |     0.9673392621    0.0000000000 | 

                       |  Abs_value |  Threshold | Converged
     Delta_Free_energy |   9.97E-05 |   1.00E-06 |        No
     Delta_Energy      |   9.98E-05 |   1.00E-04 |       Yes
     Delta_Entropy     |   1.44E-07 |   1.00E-04 |       Yes
     Commutator        |   6.35E-06 |   1.00E-05 |       Yes
     Delta_Fermi_level |   3.19E-05 |   1.00E-03 |       Yes

  Line search of the free energy minimum:
  Step_type        Step             Free_energy   Predicted_free_energy
.   Initial    0.000000    -3679.92012712635415
.    Trial1    0.412637    -3679.92015208133898
.    Trial2    0.636990    -3679.92009431419410
. Quadratic    0.266897    -3679.92016269431406    -3679.92016268361931

--------------------------------------------------------------------------------
  Iter                              Commutator    Free_energy(A=E-TS)     DeltaA
#    4                          0.000004016946   -3679.92016269431406  -3.56E-05

Step                       =       0.266897080649
Energy                     =   -3679.920132360634
Entropy (-TS)              =      -0.000030333566
Free energy (A=E-TS)       =   -3679.920162694314
Est. 0K Energy 0.5*(E+A)   =   -3679.920147527474
Residual Non-orthogonality =       0.000000000000
Residual N_electrons       =      -0.000000000114

Spin          Integrated_Ne            Fermi_level     Delta_Fermi_level
   1      2560.000000000762         0.149525897234             -1.12E-05

                           Spin 1          
     Orb      H-eigenvalues     Occupancies
       1 |    -0.5697268530    1.0000000000 | 
[...]
 C   275 -- C   555       -0.10      5.37000
 C   274 -- C   554       -0.10      5.37000
 C   273 -- C   553       -0.10      5.37000
 C   272 -- C   552       -0.10      5.37000
 C   271 -- C   551       -0.10      5.37000
 C   270 -- C   550       -0.10      5.37000
 C   269 -- C   549       -0.10      5.37000
 C   268 -- C   548       -0.10      5.37000
 C   267 -- C   547       -0.10      5.37000
 C   266 -- C   546       -0.10      5.37000
 C   130 -- C   465       -0.09      5.37000
 C   129 -- C   464       -0.09      5.37000
 C   128 -- C   463       -0.09      5.37000
 C   127 -- C   462       -0.09      5.37000
 C   126 -- C   461       -0.09      5.37000
 C   240 -- C   525       -0.10      5.37000
 C   239 -- C   524       -0.10      5.37000
 C   238 -- C   523       -0.10      5.37000
 C   237 -- C   522       -0.10      5.37000
 C   236 -- C   521       -0.10      5.37000
 C    23 -- C   478       -0.09      5.37202
 C    49 -- C   469       -0.09      5.37202
 C    48 -- C   468       -0.09      5.37202
 C    47 -- C   467       -0.09      5.37202
 C    22 -- C   477       -0.09      5.37202
 C    46 -- C   466       -0.09      5.37202
 C    21 -- C   476       -0.09      5.37202
 C    25 -- C   480       -0.09      5.37202
 C    24 -- C   479       -0.09      5.37202
 C    50 -- C   470       -0.09      5.37202
 C    24 -- C   449       -0.09      5.37202
 C     6 -- C   416       -0.09      5.37202
 C    23 -- C   448       -0.09      5.37202
 C    22 -- C   447       -0.09      5.37202
 C    10 -- C   470       -0.09      5.37202
 C     5 -- C   450       -0.09      5.37202
 C    21 -- C   446       -0.09      5.37202
 C    10 -- C   420       -0.09      5.37202
 C     9 -- C   469       -0.09      5.37202
 C     9 -- C   419       -0.09      5.37202
 C     8 -- C   468       -0.09      5.37202
 C     4 -- C   449       -0.09      5.37202
 C     8 -- C   418       -0.09      5.37202
 C     2 -- C   447       -0.09      5.37202
 C     7 -- C   467       -0.09      5.37202
 C     7 -- C   417       -0.09      5.37202
 C     1 -- C   446       -0.09      5.37202
 C     6 -- C   466       -0.09      5.37202
 C    25 -- C   450       -0.09      5.37202
 C     3 -- C   448       -0.09      5.37202
 C   285 -- C   580       -0.09      5.37202
 C   284 -- C   579       -0.09      5.37202
 C   283 -- C   578       -0.09      5.37202
 C   282 -- C   577       -0.09      5.37202
 C   281 -- C   576       -0.09      5.37202
 C   260 -- C   605       -0.09      5.37202
 C   259 -- C   604       -0.09      5.37202
 C   258 -- C   603       -0.09      5.37202
 C   257 -- C   602       -0.09      5.37202
 C   256 -- C   601       -0.09      5.37202
 C   219 -- C   569       -0.09      5.37202
 C   218 -- C   568       -0.09      5.37202
 C   217 -- C   567       -0.09      5.37202
 C   216 -- C   566       -0.09      5.37202
 C    11 -- C   331       -0.09      5.37202
 C   205 -- C   550       -0.09      5.37202
 C   204 -- C   549       -0.09      5.37202
 C   203 -- C   548       -0.09      5.37202
 C   202 -- C   547       -0.09      5.37202
 C   201 -- C   546       -0.09      5.37202
 C    15 -- C   335       -0.09      5.37202
 C    30 -- C   355       -0.09      5.37202
 C    30 -- C   325       -0.09      5.37202
 C    14 -- C   334       -0.09      5.37202
 C    29 -- C   354       -0.09      5.37202
 C    29 -- C   324       -0.09      5.37202
 C   260 -- C   550       -0.09      5.37202
 C   259 -- C   549       -0.09      5.37202
 C    28 -- C   353       -0.09      5.37202
 C   258 -- C   548       -0.09      5.37202
 C   257 -- C   547       -0.09      5.37202
 C   256 -- C   546       -0.09      5.37202
 C    28 -- C   323       -0.09      5.37202
 C    27 -- C   352       -0.09      5.37202
 C    13 -- C   333       -0.09      5.37202
 C   250 -- C   540       -0.09      5.37202
 C   249 -- C   539       -0.09      5.37202
 C   248 -- C   538       -0.09      5.37202
 C   247 -- C   537       -0.09      5.37202
 C   246 -- C   536       -0.09      5.37202
 C    27 -- C   322       -0.09      5.37202
 C    26 -- C   351       -0.09      5.37202
 C    55 -- C   335       -0.09      5.37202
 C    26 -- C   321       -0.09      5.37202
 C    54 -- C   334       -0.09      5.37202
 C    12 -- C   332       -0.09      5.37202
 C    53 -- C   333       -0.09      5.37202
 C   230 -- C   580       -0.09      5.37202
 C   230 -- C   525       -0.09      5.37202
 C   229 -- C   579       -0.09      5.37202
 C   229 -- C   524       -0.09      5.37202
 C   228 -- C   578       -0.09      5.37202
 C    52 -- C   332       -0.09      5.37202
 C   228 -- C   523       -0.09      5.37202
 C   227 -- C   577       -0.09      5.37202
 C   227 -- C   522       -0.09      5.37202
 C   226 -- C   576       -0.09      5.37202
 C   226 -- C   521       -0.09      5.37202
 C    51 -- C   331       -0.09      5.37202
 C   220 -- C   570       -0.09      5.37202
 C   220 -- C   515       -0.09      5.37202
 C   219 -- C   514       -0.09      5.37202
 C   218 -- C   513       -0.09      5.37202
 C   217 -- C   512       -0.09      5.37202
 C   216 -- C   511       -0.09      5.37202
 C    95 -- C   425       -0.09      5.37202
 C    95 -- C   365       -0.09      5.37202
 C    94 -- C   424       -0.09      5.37202
 C    94 -- C   364       -0.09      5.37202
 C    93 -- C   423       -0.09      5.37202
 C   195 -- C   540       -0.09      5.37202
 C   195 -- C   500       -0.09      5.37202
 C    93 -- C   363       -0.09      5.37202
 C   194 -- C   539       -0.09      5.37202
 C    92 -- C   422       -0.09      5.37202
 C   194 -- C   499       -0.09      5.37202
 C   193 -- C   538       -0.09      5.37202
 C   193 -- C   498       -0.09      5.37202
 C    92 -- C   362       -0.09      5.37202
 C   192 -- C   537       -0.09      5.37202
 C    91 -- C   421       -0.09      5.37202
 C   192 -- C   497       -0.09      5.37202
 C   191 -- C   536       -0.09      5.37202
 C   191 -- C   496       -0.09      5.37202
 C    91 -- C   361       -0.09      5.37202
 C    85 -- C   355       -0.09      5.37202
 C   180 -- C   515       -0.09      5.37202
 C    40 -- C   365       -0.09      5.37202
 C    84 -- C   354       -0.09      5.37202
 C   179 -- C   514       -0.09      5.37202
 C    83 -- C   353       -0.09      5.37202
 C   178 -- C   513       -0.09      5.37202
 C   177 -- C   512       -0.09      5.37202
 C    82 -- C   352       -0.09      5.37202
 C    39 -- C   364       -0.09      5.37202
 C   176 -- C   511       -0.09      5.37202
 C    81 -- C   351       -0.09      5.37202
 C    38 -- C   363       -0.09      5.37202
 C    37 -- C   362       -0.09      5.37202
 C    36 -- C   361       -0.09      5.37202
 C    65 -- C   395       -0.09      5.37202
 C    65 -- C   345       -0.09      5.37202
 C    64 -- C   394       -0.09      5.37202
 C    64 -- C   344       -0.09      5.37202
 C    63 -- C   393       -0.09      5.37202
 C    63 -- C   343       -0.09      5.37202
 C    62 -- C   392       -0.09      5.37202
 C    62 -- C   342       -0.09      5.37202
 C    61 -- C   391       -0.09      5.37202
 C    61 -- C   341       -0.09      5.37202
 C   120 -- C   395       -0.09      5.37202
 C    55 -- C   385       -0.09      5.37202
 C   119 -- C   394       -0.09      5.37202
 C   118 -- C   393       -0.09      5.37202
 C   117 -- C   392       -0.09      5.37202
 C    54 -- C   384       -0.09      5.37202
 C   116 -- C   391       -0.09      5.37202
 C    53 -- C   383       -0.09      5.37202
 C    52 -- C   382       -0.09      5.37202
 C    51 -- C   381       -0.09      5.37202
 C   150 -- C   440       -0.09      5.37202
 C   149 -- C   439       -0.09      5.37202
 C   148 -- C   438       -0.09      5.37202
 C   147 -- C   437       -0.09      5.37202
 C   146 -- C   436       -0.09      5.37202
 C   135 -- C   460       -0.09      5.37202
 C   134 -- C   459       -0.09      5.37202
 C   133 -- C   458       -0.09      5.37202
 C   132 -- C   457       -0.09      5.37202
 C   131 -- C   456       -0.09      5.37202
 C   106 -- C   436       -0.09      5.37202
 C   106 -- C   376       -0.09      5.37202
 C    80 -- C   410       -0.09      5.37202
 C    79 -- C   409       -0.09      5.37202
 C    78 -- C   408       -0.09      5.37202
 C    77 -- C   407       -0.09      5.37202
 C    76 -- C   406       -0.09      5.37202
 C   135 -- C   410       -0.09      5.37202
 C   134 -- C   409       -0.09      5.37202
 C   133 -- C   408       -0.09      5.37202
 C   132 -- C   407       -0.09      5.37202
 C   131 -- C   406       -0.09      5.37202
 C   110 -- C   440       -0.09      5.37202
 C   110 -- C   380       -0.09      5.37202
 C   109 -- C   439       -0.09      5.37202
 C   109 -- C   379       -0.09      5.37202
 C   108 -- C   438       -0.09      5.37202
 C   108 -- C   378       -0.09      5.37202
 C   107 -- C   437       -0.09      5.37202
 C   107 -- C   377       -0.09      5.37202
 C   215 -- C   635       -0.09      5.38000
 C   214 -- C   634       -0.09      5.38000
 C   213 -- C   633       -0.09      5.38000
 C   212 -- C   632       -0.09      5.38000
 C   211 -- C   631       -0.09      5.38000
 C   190 -- C   620       -0.09      5.38000
 C   189 -- C   619       -0.09      5.38000
 C   188 -- C   618       -0.09      5.38000
 C   187 -- C   617       -0.09      5.38000
 C   186 -- C   616       -0.09      5.38000
 C   175 -- C   595       -0.09      5.38000
 C   174 -- C   594       -0.09      5.38000
 C   173 -- C   593       -0.09      5.38000
 C   172 -- C   592       -0.09      5.38000
 C   171 -- C   591       -0.09      5.38000
 C   245 -- C   640       -0.09      5.38000
 C   244 -- C   639       -0.09      5.38000
 C   243 -- C   638       -0.09      5.38000
 C   242 -- C   637       -0.09      5.38000
 C   241 -- C   636       -0.09      5.38000
==================================================


=================== Orbital energy and occupancy information ===================

      Total number of orbitals:    2560
        Occupancy sum (kernel):    1280.000000000
   Occupancy sum (eigenvalues):    1280.000000000
                 HOMO-LUMO gap:       0.066513767 Eh
                 Mid-gap level:       0.210930397 Eh

                        Orbital | Energy (Eh) | Occupancy
                            1    -0.506781750   1.0000000
                        .......   ...........   .........
                         1271     0.173584160   0.9999884
                         1272     0.173603958   0.9999883
                         1273     0.174052667   0.9999865
                         1274     0.174072444   0.9999865
                         1275     0.176285206   0.9999728
                         1276     0.176333786   0.9999723
                         1277     0.176752358   0.9999684
                         1278     0.176800974   0.9999679
                         1279     0.177208440   0.9999635
                         1280     0.177673513   0.9999578
                        ....... -- gap at 0K -- .........
                         1281     0.244187280   0.0000177
                         1282     0.244204335   0.0000176
                         1283     0.244443272   0.0000163
                         1284     0.244460430   0.0000162
                         1285     0.244491875   0.0000161
                         1286     0.244529010   0.0000159
                         1287     0.244738516   0.0000149
                         1288     0.244757755   0.0000148
                         1289     0.244795018   0.0000146
                         1290     0.244834293   0.0000144
                        .......   ...........   .........
                         2560     1.090590775   0.0000000

================================================================================

===================== Writing canonical molecular orbitals =====================
| Orbital  Energy (eV)  Norm     |
| HOMO      4.83474231  1.000000 | Writing "3.7832992_GO_manual_4x64graphite_HOMO.cube" ... done
Writing "3.7832992_GO_manual_4x64graphite_HOMO.dx" ... done
| LUMO      6.64467400  1.000000 | Writing "3.7832992_GO_manual_4x64graphite_LUMO.cube" ... done
Writing "3.7832992_GO_manual_4x64graphite_LUMO.dx" ... done
================================================================================
 
===================== Density of States (DOS) calculation ======================
Writing "3.7832992_GO_manual_4x64graphite_DOS.txt" ...  done
================================================================================
 
Writing bands to file "3.7832992_GO_manual_4x64graphite.val_bands" ... done
 
================ Projected Density of States (pDOS) calculation ================
 
Constructing AM resolved functions  ...... done
Writing NGWF plot files in formats: CUBE DX ...  done
 
Performing overlap integrals ...  done
 
Computing pDOS weights ...  done
 
All bands spilling parameter =   3.07 %
Occupancy-weighted spilling parameter =   0.97 %
 
 => Outputting data for OptaDOS <=
 
Writing pDOS weights to file "3.7832992_GO_manual_4x64graphite.val_pdos_bin" ... done
 
Writing band gradients to file "3.7832992_GO_manual_4x64graphite.val_dome_bin" ... done
 
Writing Castep output cell file to "3.7832992_GO_manual_4x64graphite-out.cell" ... done
 
 => Computing Gaussian smeared pDOS <= 
Writing "3.7832992_GO_manual_4x64graphite_PDOS.txt" ...  done
 
 => Computing Occupancy-weighted Gaussian smeared pDOS <= 
Writing "3.7832992_GO_manual_4x64graphite_occ_PDOS.txt" ...  done
  => Band centres: 
 S band centre of group 1:  -14.697604 eV
 P band centre of group 1:   -7.585170 eV
  Band centres done. <=
  => Integrated number of electrons in each AM band: 
 S num electrons of group 1:  574.349673
 P num electrons of group 1: 1960.735685
  Integrated number of electrons done. <=
================================================================================

------------------------------ TIMING INFORMATION ------------------------------
AVERAGE TIME:    3342.873s on     40 node(s)                                    
TOTAL TIME:      3342.874s on     40 node(s)                                    
================= AVERAGE TIMINGS FROM ALL NODES (CUMULATIVE) ==================
|| TAG                                    #calls    cpu time   %total  Gflops ||
|| work_imbalance                       :     1        0.00s   0.000%  ------ ||
|| paw_tcore_hartree_on_grid            :     1        0.00s   0.000%  ------ ||
|| paw_tcore_density                    :     1        0.01s   0.000%  ------ ||
|| paw_sphere_density_on_grid           :     1        0.01s   0.000%  ------ ||
|| sparse_set_to_garbage                :   147        0.02s   0.001%  ------ ||
|| paw_dij_hartree                      :   299        0.04s   0.001%  ------ ||
|| pseudo_make_structure_factor         :     1        0.06s   0.002%  ------ ||
|| basis_extract_function_from_box      :  1664        0.07s   0.002%  ------ ||
|| paw_species_calc_proj_prec_mat       :     1        0.12s   0.004%  ------ ||
|| paw_dataset_init                     :     1        0.15s   0.004%  ------ ||
|| density_init_guess_real              :     1        0.17s   0.005%  ------ ||
|| ngwfs_initialise_from_radial         :     2        0.66s   0.020%  ------ ||
|| restart_kernel_write                 :    14        0.69s   0.021%  ------ ||
|| sparse_init                          :     1        0.91s   0.027%  ------ ||
|| dense_normal_eigensolve              :     1        0.98s   0.029%  ------ ||
|| hartree_on_grid                      :   224        1.50s   0.045%  ------ ||
|| projectors_init_fftbox_recip         :   131        2.64s   0.079%  ------ ||
|| ewald_calculate_energy               :     1        3.23s   0.097%  ------ ||
|| fourier_apply_box_pair               :  2464        4.11s   0.123% 555.795 ||
|| basis_copy_function_to_box           : 21376        4.49s   0.134%  ------ ||
|| augmentation_screen_dij              :   229        4.91s   0.147%  ------ ||
|| sw_init                              :     1        6.74s   0.202%  ------ ||
|| sparse_embed_hotelling_invert_embed  :    25        7.06s   0.211%  ------ ||
|| ngwf_gradient_coeffs                 :    13        9.08s   0.272%  ------ ||
|| sparse_trace                         :  2704       12.05s   0.360%  ------ ||
|| cell_grid_extract_box_real           :  9052       16.90s   0.506%  ------ ||
|| fourier_apply_cell_backward          :  6915       18.37s   0.550%  50.263 ||
|| fourier_apply_cell_forward           :  6468       19.78s   0.592%  43.665 ||
|| paw_dij_xc                           :   299       20.28s   0.607%  ------ ||
|| cell_grid_deposit_box_real           : 28848       20.74s   0.621%  ------ ||
|| aug_nonlocal_mat                     :   286       29.72s   0.889%  ------ ||
|| augmentation_density_on_grid         :   224       39.63s   1.186%  ------ ||
|| density_fftbox_deposit_to_cell       : 14336       44.34s   1.326%  ------ ||
|| hamiltonian_energy_components        :     3       47.62s   1.424%  ------ ||
|| function_ops_brappd_ketppd           :    52       50.84s   1.521%  ------ ||
|| eigenstates_pdos                     :     1       53.26s   1.593%  ------ ||
|| eigenstates_calculate                :     1       57.64s   1.724%  ------ ||
|| projectors_func_ovlp_box             :    26       58.25s   1.743%  ------ ||
|| nlxc_vdw_energy                      :   446       75.77s   2.267%  ------ ||
|| xc_energy_potential                  :   223       77.36s   2.314%  ------ ||
|| integrals_kinetic                    :    25       82.59s   2.471%  ------ ||
|| dense_eigensolve                     :   195      100.19s   2.997%  ------ ||
|| properties_calculate                 :     1      105.04s   3.142%  ------ ||
|| sparse_product                       :  2749      110.06s   3.292%  ------ ||
|| potential_apply_to_ngwf_batch        :   284      112.14s   3.355%  ------ ||
|| restart_ngwfs_tightbox_output        :    12      129.96s   3.888%  ------ ||
|| basis_dot_function_with_box          : 6.640M     181.77s   5.438%  ------ ||
|| fourier_apply_box                    : 67392      209.68s   6.273% 976.133 ||
|| edft_diag_ngwf_ham                   :   194      225.88s   6.757%  ------ ||
|| projectors_gradient_batch            :    52      233.93s   6.998%  ------ ||
|| integrals_locpot_mat_els_batch       :   284      243.50s   7.284%  ------ ||
|| density_fftbox_interpolate_multiply  : 14336      275.81s   8.251%  ------ ||
|| projectors_grad_precond_batch        :    52      327.54s   9.798%  ------ ||
|| density_batch_interp_deposit         :   896      353.91s  10.587%  ------ ||
|| integrals_locpot_dbl_grid            :    71      356.92s  10.677%  ------ ||
|| edft_apply_smearing_operator         :   194      431.56s  12.910%  ------ ||
|| basis_add_function_to_box            : 18.51M     490.82s  14.682%  ------ ||
|| ngwf_gradient_build_batch            :    52      601.44s  17.992%  ------ ||
|| density_batch_row_sums               :   896      695.05s  20.792%  ------ ||
|| ngwf_gradient_batch                  :    52      797.42s  23.854%  ------ ||
|| ngwf_gradient_lnv                    :    13      825.63s  24.698%  ------ ||
|| density_on_dbl_grid                  :   224     1060.45s  31.723%  ------ ||
|| hamiltonian_lhxc_calculate           :   219     1154.47s  34.535%  ------ ||
|| edft_calculate                       :    13     1923.25s  57.533%  ------ ||
|| ngwf_cg_optimise                     :     1     3212.97s  96.114%  ------ ||
|| total_time                           :     1     3342.87s 100.000%  ------ ||
================================================================================
Overhead of generating timer report: 
- 0 ms averaging over threads,
- 5 ms ensuring consistency across MPI ranks,
- 0 ms printing in order.

Job completed: 29-02-2020 13:11 (-0000)

