 +---------------------------------------------------------------+
 |                                                               |
 |        ####### #     # ####### ####### ####### ######         |
 |        #     # ##    # #          #    #       #     #        |
 |        #     # # #   # #          #    #       #     #        |
 |        #     # #  #  # #####      #    #####   ######         |
 |        #     # #   # # #          #    #       #              |
 |        #     # #    ## #          #    #       #              |
 |        ####### #     # #######    #    ####### #              |
 |                                                               |
 |        Linear-Scaling Ab Initio Total Energy Program          |
 |                                                               |
 |          Release for academic collaborators of ODG            |
 |                                             Version 5.3.2.12  |
 |                                                               |
 +---------------------------------------------------------------+
 |                                                               |
 |  Authors:                                                     |
 |  Jacek Dziedzic, Peter D. Haynes, Nicholas D. M. Hine,        |
 |  Arash. A. Mostofi, Mike C. Payne and Chris-Kriton Skylaris   |
 |                                                               |
 |  Contributors:                                                |
 |  J. Aarons, L. Andrinopoulos, P. W. Avraam, R. A. Bell,       |
 |  A. Bhandari, G. A. Bramley, R. J. Charlton, S. J. Clark,     |
 |  R. J. Clements, G. C. Constantinescu, F. Corsetti,           |
 |  N. Corsini, O. Dieguez, S. M. M. Dubois, K. K. B. Duff,      |
 |  J. M. Escartin, A. Greco, H. Helal, Q. O. Hill, L. P. Lee,   |
 |  J.-H. Li, E. B. Linscott, G. Moynihan, D. D. O`Regan,        |
 |  O. K. Okan, M. J. S. Phipps, C. J. Pickard,                  |
 |  J. C. A. Prentice, M. I. J. Probert, L. E. Ratcliff,         |
 |  M. Robinson, A. Ruiz Serrano, J. S. Spencer, E. W. Tait,     |
 |  G. Teobaldi, D. Turban, V. Vitale, K. A. Wilkinson,          |
 |  C. Weber, J. C. Womack, N. Yeung and T. J. Zuehlsdorff       |
 |                                                               |
 |                                   Copyright (c) 2004-2020     |
 |                                                               |
 |  Please cite:                                                 |
 |  "Introducing ONETEP: Linear-scaling density functional       |
 |   simulations on parallel computers".                         |
 |   C.-K. Skylaris, P. D. Haynes, A. A. Mostofi, M. C. Payne.   |
 |   J. Chem. Phys. 122 084119 (2005).                           |
 |                                                               |
 |          in all publications arising from your use of ONETEP. |
 |                                                               |
 +---------------------------------------------------------------+
 |                                                               |
 |   ONETEP is based on developments described in the following  |
 |   publications:                                               |
 |                                                               |
 |  "Nonorthogonal generalized Wannier function pseudopotential  |
 |   plane-wave method".                                         |
 |   C.-K. Skylaris, A. A. Mostofi, P. D. Haynes, O. Dieguez,    |
 |   M. C. Payne.                                                |
 |   Phys. Rev. B 66 035119 (2002).                              |
 |                                                               |
 |  "Preconditioned iterative minimization for linear-scaling    |
 |   electronic structure calculations".                         |
 |   A. A. Mostofi, P. D. Haynes, C.-K. Skylaris, M. C. Payne.   |
 |   J. Chem. Phys. 119(17), pp.8842-8848 (2003).                |
 |                                                               |
 |  "Total-energy calculations on a real space grid with         |
 |   localized functions and a plane-wave basis".                |
 |   A. A. Mostofi, C.-K. Skylaris, P. D. Haynes, M. C. Payne.   |
 |   Comput. Phys. Commun. 147, pp.788-802 (2002).               |
 |                                                               |
 |  "Accurate kinetic energy evaluation in electronic structure  |
 |   calculations with localized functions on real space grids"  |
 |   C.-K. Skylaris, A. A. Mostofi, P. D. Haynes, C. J. Pickard, |
 |   M. C. Payne.                                                |
 |   Comput. Phys. Commun. 140, pp.315-322 (2001).               |
 |                                                               |
 |  "Accurate ionic forces and geometry optimization in linear-  |
 |   scaling density-functional theory with local orbitals"      |
 |   N. D. M. Hine, M. Robinson, P. D. Haynes, C.-K. Skylaris,   |
 |   M. C. Payne, and A. A. Mostofi.                             |
 |   Phys. Rev. B 83 195102 (2011).                              |
 |                                                               |
 +---------------------------------------------------------------+

Job started: 29-02-2020 11:32 (-0000)
 
Reading parameters from file "3.8369616_GO_manual_4x64graphite.dat" ...

WARNING: "cutoff_energy" not specified, but "psinc_spacing" specified.
         Using the latter to set the KE cutoff energy to  732.32021eV,
         thus *overriding* the default.

... done

If your calculation crashes here, before "Checking processes and threads..."
is displayed, then your stack size is insufficient.
If so, use "ulimit -s unlimited" at runtime.
You can disable this check with "check_stack_size F".

Checking processes and threads...
   Determining the default number of threads...
      No default threads set at compilation time: defaulting to 1.
      OpenMP library call suggests 4 threads.
      Hybrid MPI-OpenMP compilation detected.
      Number of MPI processes > 1.
      OMP_NUM_THREADS environment variable present and
      its value matches the one obtained from the OpenMP library call.
      Using this value as default.
      Default threads: 4
      Default applies to threads_max and threads_num_fftboxes.
      Settings in the input file override this default.
   ... done

   Running with 40 MPI processes.
   There are 10 MPI processes running on the same node as the root process.
   Each MPI process is using: 
               1 threads for simulation cell FFTs.
               1 threads for parallel FFT box operations.
               4 threads for loops over batched FFT box operations.
               4 threads in other parallel regions.
... done

Basic input checks...
Resetting ngwf_cg_rotate to TRUE for EDFT calculations
... done

Reading geometry and species blocks from file "3.8369616_GO_manual_4x64graphite.dat" ...
    
  PSINC grid spacing along a1 set to   0.511215680000a0 from input file.
  PSINC grid spacing along a2 set to   0.531284090000a0 from input file.
  PSINC grid spacing along a3 set to   0.507050450000a0 from input file.
  Number of PPD points along a3 set to 1.  This is 
  the default value, it may have been provided also in the input file.
... done
 Writing xyz coordinates to file "3.8369616_GO_manual_4x64graphite.xyz" ... done


--------------------------------------------------------------------------------
---------------------------------- INPUT FILE ----------------------------------
--------------------------------------------------------------------------------

task : singlepoint                                                              
do_properties : true                                                            
dx_format T                                                                     
edft T                                                                          
output_detail VERBOSE                                                           
write_xyz T                                                                     
xc_functional VDWDF2                                                            
PSINC_SPACING 0.51121568 0.53128409 0.50705045                                  
paw T                                                                           
pdos_max_l = 2                                                                  
dos_smear  0.1 eV                                                               
popn_calculate T                                                                
PDOS_PSEUDOATOMIC T                                                             
PDOS_REDUCE_SWS F                                                               
PDOS_CONSTRUCT_BASIS F                                                          
PDOS_LOWDIN T                                                                   
PDOS_ORTH_ATOM_BLOCKS F                                                         
PDOS_LCAO_OPTIMIZE F                                                            
pdos_optados_output T                                                           
homo_plot 0                                                                     
lumo_plot 0                                                                     
homo_dens_plot -1                                                               
lumo_dens_plot -1                                                               
%BLOCK SPECIES                                                                  
C C 6 4 9.0                                                                     
%ENDBLOCK SPECIES                                                               
%BLOCK SPECIES_POT                                                              
C "~/pp/paw/c_pbe_abinit.paw"                                                   
%ENDBLOCK SPECIES_POT                                                           
%BLOCK SPECIES_ATOMIC_SET                                                       
C "SOLVE conf=2s2 2p2"                                                          
%ENDBLOCK SPECIES_ATOMIC_SET                                                    
%BLOCK LATTICE_CART                                                             
32.21  0.00  0.00                                                               
0.00 18.59  0.00                                                                
0.00  0.00 72.51                                                                
%ENDBLOCK LATTICE_CART                                                          
%BLOCK POSITIONS_ABS                                                            
C  0.00  0.00  3.63                                                             
C  0.00  0.00 18.13                                                             
C  0.00  0.00 32.63                                                             
C  0.00  0.00 47.13                                                             
C  0.00  0.00 61.63                                                             
C  0.00  4.65  3.63                                                             
C  0.00  4.65 18.13                                                             
C  0.00  4.65 32.63                                                             
C  0.00  4.65 47.13                                                             
C  0.00  4.65 61.63                                                             
C  4.03  2.32  3.63                                                             
C  4.03  2.32 18.13                                                             
C  4.03  2.32 32.63                                                             
C  4.03  2.32 47.13                                                             
C  4.03  2.32 61.63                                                             
C  8.05  0.00  3.63                                                             
C  8.05  0.00 18.13                                                             
C  8.05  0.00 32.63                                                             
C  8.05  0.00 47.13                                                             
C  8.05  0.00 61.63                                                             
C  0.00  9.30  3.63                                                             
C  0.00  9.30 18.13                                                             
C  0.00  9.30 32.63                                                             
C  0.00  9.30 47.13                                                             
C  0.00  9.30 61.63                                                             
C  4.03  6.97  3.63                                                             
C  4.03  6.97 18.13                                                             
C  4.03  6.97 32.63                                                             
C  4.03  6.97 47.13                                                             
C  4.03  6.97 61.63                                                             
C  8.05  4.65  3.63                                                             
C  8.05  4.65 18.13                                                             
C  8.05  4.65 32.63                                                             
C  8.05  4.65 47.13                                                             
C  8.05  4.65 61.63                                                             
C 12.08  2.32  3.63                                                             
C 12.08  2.32 18.13                                                             
C 12.08  2.32 32.63                                                             
C 12.08  2.32 47.13                                                             
C 12.08  2.32 61.63                                                             
C 16.10  0.00  3.63                                                             
C 16.10  0.00 18.13                                                             
C 16.10  0.00 32.63                                                             
C 16.10  0.00 47.13                                                             
C 16.10  0.00 61.63                                                             
C  0.00 13.95  3.63                                                             
C  0.00 13.95 18.13                                                             
C  0.00 13.95 32.63                                                             
C  0.00 13.95 47.13                                                             
C  0.00 13.95 61.63                                                             
C  4.03 11.62  3.63                                                             
C  4.03 11.62 18.13                                                             
C  4.03 11.62 32.63                                                             
C  4.03 11.62 47.13                                                             
C  4.03 11.62 61.63                                                             
C  8.05  9.30  3.63                                                             
C  8.05  9.30 18.13                                                             
C  8.05  9.30 32.63                                                             
C  8.05  9.30 47.13                                                             
C  8.05  9.30 61.63                                                             
C 12.08  6.97  3.63                                                             
C 12.08  6.97 18.13                                                             
C 12.08  6.97 32.63                                                             
C 12.08  6.97 47.13                                                             
C 12.08  6.97 61.63                                                             
C 16.10  4.65  3.63                                                             
C 16.10  4.65 18.13                                                             
C 16.10  4.65 32.63                                                             
C 16.10  4.65 47.13                                                             
C 16.10  4.65 61.63                                                             
C 20.13  2.32  3.63                                                             
C 20.13  2.32 18.13                                                             
C 20.13  2.32 32.63                                                             
C 20.13  2.32 47.13                                                             
C 20.13  2.32 61.63                                                             
C 24.16  0.00  3.63                                                             
C 24.16  0.00 18.13                                                             
C 24.16  0.00 32.63                                                             
C 24.16  0.00 47.13                                                             
C 24.16  0.00 61.63                                                             
C  4.03 16.27  3.63                                                             
C  4.03 16.27 18.13                                                             
C  4.03 16.27 32.63                                                             
C  4.03 16.27 47.13                                                             
C  4.03 16.27 61.63                                                             
C  8.05 13.95  3.63                                                             
C  8.05 13.95 18.13                                                             
C  8.05 13.95 32.63                                                             
C  8.05 13.95 47.13                                                             
C  8.05 13.95 61.63                                                             
C 12.08 11.62  3.63                                                             
C 12.08 11.62 18.13                                                             
C 12.08 11.62 32.63                                                             
C 12.08 11.62 47.13                                                             
C 12.08 11.62 61.63                                                             
C 16.10  9.30  3.63                                                             
C 16.10  9.30 18.13                                                             
C 16.10  9.30 32.63                                                             
C 16.10  9.30 47.13                                                             
C 16.10  9.30 61.63                                                             
C 20.13  6.97  3.63                                                             
C 20.13  6.97 18.13                                                             
C 20.13  6.97 32.63                                                             
C 20.13  6.97 47.13                                                             
C 20.13  6.97 61.63                                                             
C 24.16  4.65  3.63                                                             
C 24.16  4.65 18.13                                                             
C 24.16  4.65 32.63                                                             
C 24.16  4.65 47.13                                                             
C 24.16  4.65 61.63                                                             
C 28.18  2.32  3.63                                                             
C 28.18  2.32 18.13                                                             
C 28.18  2.32 32.63                                                             
C 28.18  2.32 47.13                                                             
C 28.18  2.32 61.63                                                             
C 12.08 16.27  3.63                                                             
C 12.08 16.27 18.13                                                             
C 12.08 16.27 32.63                                                             
C 12.08 16.27 47.13                                                             
C 12.08 16.27 61.63                                                             
C 16.10 13.95  3.63                                                             
C 16.10 13.95 18.13                                                             
C 16.10 13.95 32.63                                                             
C 16.10 13.95 47.13                                                             
C 16.10 13.95 61.63                                                             
C 20.13 11.62  3.63                                                             
C 20.13 11.62 18.13                                                             
C 20.13 11.62 32.63                                                             
C 20.13 11.62 47.13                                                             
C 20.13 11.62 61.63                                                             
C 24.16  9.30  3.63                                                             
C 24.16  9.30 18.13                                                             
C 24.16  9.30 32.63                                                             
C 24.16  9.30 47.13                                                             
C 24.16  9.30 61.63                                                             
C 28.18  6.97  3.63                                                             
C 28.18  6.97 18.13                                                             
C 28.18  6.97 32.63                                                             
C 28.18  6.97 47.13                                                             
C 28.18  6.97 61.63                                                             
C 20.13 16.27  3.63                                                             
C 20.13 16.27 18.13                                                             
C 20.13 16.27 32.63                                                             
C 20.13 16.27 47.13                                                             
C 20.13 16.27 61.63                                                             
C 24.16 13.95  3.63                                                             
C 24.16 13.95 18.13                                                             
C 24.16 13.95 32.63                                                             
C 24.16 13.95 47.13                                                             
C 24.16 13.95 61.63                                                             
C 28.18 11.62  3.63                                                             
C 28.18 11.62 18.13                                                             
C 28.18 11.62 32.63                                                             
C 28.18 11.62 47.13                                                             
C 28.18 11.62 61.63                                                             
C 28.18 16.27  3.63                                                             
C 28.18 16.27 18.13                                                             
C 28.18 16.27 32.63                                                             
C 28.18 16.27 47.13                                                             
C 28.18 16.27 61.63                                                             
C  0.00  0.00 10.88                                                             
C  0.00  0.00 25.38                                                             
C  0.00  0.00 39.88                                                             
C  0.00  0.00 54.38                                                             
C  0.00  0.00 68.88                                                             
C  0.00  4.65 10.88                                                             
C  0.00  4.65 25.38                                                             
C  0.00  4.65 39.88                                                             
C  0.00  4.65 54.38                                                             
C  0.00  4.65 68.88                                                             
C  4.03  2.32 10.88                                                             
C  4.03  2.32 25.38                                                             
C  4.03  2.32 39.88                                                             
C  4.03  2.32 54.38                                                             
C  4.03  2.32 68.88                                                             
C  8.05  0.00 10.88                                                             
C  8.05  0.00 25.38                                                             
C  8.05  0.00 39.88                                                             
C  8.05  0.00 54.38                                                             
C  8.05  0.00 68.88                                                             
C  0.00  9.30 10.88                                                             
C  0.00  9.30 25.38                                                             
C  0.00  9.30 39.88                                                             
C  0.00  9.30 54.38                                                             
C  0.00  9.30 68.88                                                             
C  4.03  6.97 10.88                                                             
C  4.03  6.97 25.38                                                             
C  4.03  6.97 39.88                                                             
C  4.03  6.97 54.38                                                             
C  4.03  6.97 68.88                                                             
C  8.05  4.65 10.88                                                             
C  8.05  4.65 25.38                                                             
C  8.05  4.65 39.88                                                             
C  8.05  4.65 54.38                                                             
C  8.05  4.65 68.88                                                             
C 12.08  2.32 10.88                                                             
C 12.08  2.32 25.38                                                             
C 12.08  2.32 39.88                                                             
C 12.08  2.32 54.38                                                             
C 12.08  2.32 68.88                                                             
C 16.10  0.00 10.88                                                             
C 16.10  0.00 25.38                                                             
C 16.10  0.00 39.88                                                             
C 16.10  0.00 54.38                                                             
C 16.10  0.00 68.88                                                             
C  0.00 13.95 10.88                                                             
C  0.00 13.95 25.38                                                             
C  0.00 13.95 39.88                                                             
C  0.00 13.95 54.38                                                             
C  0.00 13.95 68.88                                                             
C  4.03 11.62 10.88                                                             
C  4.03 11.62 25.38                                                             
C  4.03 11.62 39.88                                                             
C  4.03 11.62 54.38                                                             
C  4.03 11.62 68.88                                                             
C  8.05  9.30 10.88                                                             
C  8.05  9.30 25.38                                                             
C  8.05  9.30 39.88                                                             
C  8.05  9.30 54.38                                                             
C  8.05  9.30 68.88                                                             
C 12.08  6.97 10.88                                                             
C 12.08  6.97 25.38                                                             
C 12.08  6.97 39.88                                                             
C 12.08  6.97 54.38                                                             
C 12.08  6.97 68.88                                                             
C 16.10  4.65 10.88                                                             
C 16.10  4.65 25.38                                                             
C 16.10  4.65 39.88                                                             
C 16.10  4.65 54.38                                                             
C 16.10  4.65 68.88                                                             
C 20.13  2.32 10.88                                                             
C 20.13  2.32 25.38                                                             
C 20.13  2.32 39.88                                                             
C 20.13  2.32 54.38                                                             
C 20.13  2.32 68.88                                                             
C 24.16  0.00 10.88                                                             
C 24.16  0.00 25.38                                                             
C 24.16  0.00 39.88                                                             
C 24.16  0.00 54.38                                                             
C 24.16  0.00 68.88                                                             
C  4.03 16.27 10.88                                                             
C  4.03 16.27 25.38                                                             
C  4.03 16.27 39.88                                                             
C  4.03 16.27 54.38                                                             
C  4.03 16.27 68.88                                                             
C  8.05 13.95 10.88                                                             
C  8.05 13.95 25.38                                                             
C  8.05 13.95 39.88                                                             
C  8.05 13.95 54.38                                                             
C  8.05 13.95 68.88                                                             
C 12.08 11.62 10.88                                                             
C 12.08 11.62 25.38                                                             
C 12.08 11.62 39.88                                                             
C 12.08 11.62 54.38                                                             
C 12.08 11.62 68.88                                                             
C 16.10  9.30 10.88                                                             
C 16.10  9.30 25.38                                                             
C 16.10  9.30 39.88                                                             
C 16.10  9.30 54.38                                                             
C 16.10  9.30 68.88                                                             
C 20.13  6.97 10.88                                                             
C 20.13  6.97 25.38                                                             
C 20.13  6.97 39.88                                                             
C 20.13  6.97 54.38                                                             
C 20.13  6.97 68.88                                                             
C 24.16  4.65 10.88                                                             
C 24.16  4.65 25.38                                                             
C 24.16  4.65 39.88                                                             
C 24.16  4.65 54.38                                                             
C 24.16  4.65 68.88                                                             
C 28.18  2.32 10.88                                                             
C 28.18  2.32 25.38                                                             
C 28.18  2.32 39.88                                                             
C 28.18  2.32 54.38                                                             
C 28.18  2.32 68.88                                                             
C 12.08 16.27 10.88                                                             
C 12.08 16.27 25.38                                                             
C 12.08 16.27 39.88                                                             
C 12.08 16.27 54.38                                                             
C 12.08 16.27 68.88                                                             
C 16.10 13.95 10.88                                                             
C 16.10 13.95 25.38                                                             
C 16.10 13.95 39.88                                                             
C 16.10 13.95 54.38                                                             
C 16.10 13.95 68.88                                                             
C 20.13 11.62 10.88                                                             
C 20.13 11.62 25.38                                                             
C 20.13 11.62 39.88                                                             
C 20.13 11.62 54.38                                                             
C 20.13 11.62 68.88                                                             
C 24.16  9.30 10.88                                                             
C 24.16  9.30 25.38                                                             
C 24.16  9.30 39.88                                                             
C 24.16  9.30 54.38                                                             
C 24.16  9.30 68.88                                                             
C 28.18  6.97 10.88                                                             
C 28.18  6.97 25.38                                                             
C 28.18  6.97 39.88                                                             
C 28.18  6.97 54.38                                                             
C 28.18  6.97 68.88                                                             
C 20.13 16.27 10.88                                                             
C 20.13 16.27 25.38                                                             
C 20.13 16.27 39.88                                                             
C 20.13 16.27 54.38                                                             
C 20.13 16.27 68.88                                                             
C 24.16 13.95 10.88                                                             
C 24.16 13.95 25.38                                                             
C 24.16 13.95 39.88                                                             
C 24.16 13.95 54.38                                                             
C 24.16 13.95 68.88                                                             
C 28.18 11.62 10.88                                                             
C 28.18 11.62 25.38                                                             
C 28.18 11.62 39.88                                                             
C 28.18 11.62 54.38                                                             
C 28.18 11.62 68.88                                                             
C 28.18 16.27 10.88                                                             
C 28.18 16.27 25.38                                                             
C 28.18 16.27 39.88                                                             
C 28.18 16.27 54.38                                                             
C 28.18 16.27 68.88                                                             
C  1.34  2.32  3.63                                                             
C  1.34  2.32 18.13                                                             
C  1.34  2.32 32.63                                                             
C  1.34  2.32 47.13                                                             
C  1.34  2.32 61.63                                                             
C  5.37  0.00  3.63                                                             
C  5.37  0.00 18.13                                                             
C  5.37  0.00 32.63                                                             
C  5.37  0.00 47.13                                                             
C  5.37  0.00 61.63                                                             
C  1.34  6.97  3.63                                                             
C  1.34  6.97 18.13                                                             
C  1.34  6.97 32.63                                                             
C  1.34  6.97 47.13                                                             
C  1.34  6.97 61.63                                                             
C  5.37  4.65  3.63                                                             
C  5.37  4.65 18.13                                                             
C  5.37  4.65 32.63                                                             
C  5.37  4.65 47.13                                                             
C  5.37  4.65 61.63                                                             
C  9.39  2.32  3.63                                                             
C  9.39  2.32 18.13                                                             
C  9.39  2.32 32.63                                                             
C  9.39  2.32 47.13                                                             
C  9.39  2.32 61.63                                                             
C 13.42  0.00  3.63                                                             
C 13.42  0.00 18.13                                                             
C 13.42  0.00 32.63                                                             
C 13.42  0.00 47.13                                                             
C 13.42  0.00 61.63                                                             
C  1.34 11.62  3.63                                                             
C  1.34 11.62 18.13                                                             
C  1.34 11.62 32.63                                                             
C  1.34 11.62 47.13                                                             
C  1.34 11.62 61.63                                                             
C  5.37  9.30  3.63                                                             
C  5.37  9.30 18.13                                                             
C  5.37  9.30 32.63                                                             
C  5.37  9.30 47.13                                                             
C  5.37  9.30 61.63                                                             
C  9.39  6.97  3.63                                                             
C  9.39  6.97 18.13                                                             
C  9.39  6.97 32.63                                                             
C  9.39  6.97 47.13                                                             
C  9.39  6.97 61.63                                                             
C 13.42  4.65  3.63                                                             
C 13.42  4.65 18.13                                                             
C 13.42  4.65 32.63                                                             
C 13.42  4.65 47.13                                                             
C 13.42  4.65 61.63                                                             
C 17.45  2.32  3.63                                                             
C 17.45  2.32 18.13                                                             
C 17.45  2.32 32.63                                                             
C 17.45  2.32 47.13                                                             
C 17.45  2.32 61.63                                                             
C 21.47  0.00  3.63                                                             
C 21.47  0.00 18.13                                                             
C 21.47  0.00 32.63                                                             
C 21.47  0.00 47.13                                                             
C 21.47  0.00 61.63                                                             
C  1.34 16.27  3.63                                                             
C  1.34 16.27 18.13                                                             
C  1.34 16.27 32.63                                                             
C  1.34 16.27 47.13                                                             
C  1.34 16.27 61.63                                                             
C  5.37 13.95  3.63                                                             
C  5.37 13.95 18.13                                                             
C  5.37 13.95 32.63                                                             
C  5.37 13.95 47.13                                                             
C  5.37 13.95 61.63                                                             
C  9.39 11.62  3.63                                                             
C  9.39 11.62 18.13                                                             
C  9.39 11.62 32.63                                                             
C  9.39 11.62 47.13                                                             
C  9.39 11.62 61.63                                                             
C 13.42  9.30  3.63                                                             
C 13.42  9.30 18.13                                                             
C 13.42  9.30 32.63                                                             
C 13.42  9.30 47.13                                                             
C 13.42  9.30 61.63                                                             
C 17.45  6.97  3.63                                                             
C 17.45  6.97 18.13                                                             
C 17.45  6.97 32.63                                                             
C 17.45  6.97 47.13                                                             
C 17.45  6.97 61.63                                                             
C 21.47  4.65  3.63                                                             
C 21.47  4.65 18.13                                                             
C 21.47  4.65 32.63                                                             
C 21.47  4.65 47.13                                                             
C 21.47  4.65 61.63                                                             
C 25.50  2.32  3.63                                                             
C 25.50  2.32 18.13                                                             
C 25.50  2.32 32.63                                                             
C 25.50  2.32 47.13                                                             
C 25.50  2.32 61.63                                                             
C 29.52  0.00  3.63                                                             
C 29.52  0.00 18.13                                                             
C 29.52  0.00 32.63                                                             
C 29.52  0.00 47.13                                                             
C 29.52  0.00 61.63                                                             
C  9.39 16.27  3.63                                                             
C  9.39 16.27 18.13                                                             
C  9.39 16.27 32.63                                                             
C  9.39 16.27 47.13                                                             
C  9.39 16.27 61.63                                                             
C 13.42 13.95  3.63                                                             
C 13.42 13.95 18.13                                                             
C 13.42 13.95 32.63                                                             
C 13.42 13.95 47.13                                                             
C 13.42 13.95 61.63                                                             
C 17.45 11.62  3.63                                                             
C 17.45 11.62 18.13                                                             
C 17.45 11.62 32.63                                                             
C 17.45 11.62 47.13                                                             
C 17.45 11.62 61.63                                                             
C 21.47  9.30  3.63                                                             
C 21.47  9.30 18.13                                                             
C 21.47  9.30 32.63                                                             
C 21.47  9.30 47.13                                                             
C 21.47  9.30 61.63                                                             
C 25.50  6.97  3.63                                                             
C 25.50  6.97 18.13                                                             
C 25.50  6.97 32.63                                                             
C 25.50  6.97 47.13                                                             
C 25.50  6.97 61.63                                                             
C 29.52  4.65  3.63                                                             
C 29.52  4.65 18.13                                                             
C 29.52  4.65 32.63                                                             
C 29.52  4.65 47.13                                                             
C 29.52  4.65 61.63                                                             
C 17.45 16.27  3.63                                                             
C 17.45 16.27 18.13                                                             
C 17.45 16.27 32.63                                                             
C 17.45 16.27 47.13                                                             
C 17.45 16.27 61.63                                                             
C 21.47 13.95  3.63                                                             
C 21.47 13.95 18.13                                                             
C 21.47 13.95 32.63                                                             
C 21.47 13.95 47.13                                                             
C 21.47 13.95 61.63                                                             
C 25.50 11.62  3.63                                                             
C 25.50 11.62 18.13                                                             
C 25.50 11.62 32.63                                                             
C 25.50 11.62 47.13                                                             
C 25.50 11.62 61.63                                                             
C 29.52  9.30  3.63                                                             
C 29.52  9.30 18.13                                                             
C 29.52  9.30 32.63                                                             
C 29.52  9.30 47.13                                                             
C 29.52  9.30 61.63                                                             
C 25.50 16.27  3.63                                                             
C 25.50 16.27 18.13                                                             
C 25.50 16.27 32.63                                                             
C 25.50 16.27 47.13                                                             
C 25.50 16.27 61.63                                                             
C 29.52 13.95  3.63                                                             
C 29.52 13.95 18.13                                                             
C 29.52 13.95 32.63                                                             
C 29.52 13.95 47.13                                                             
C 29.52 13.95 61.63                                                             
C  2.68  0.00 10.88                                                             
C  2.68  0.00 25.38                                                             
C  2.68  0.00 39.88                                                             
C  2.68  0.00 54.38                                                             
C  2.68  0.00 68.88                                                             
C  2.68  4.65 10.88                                                             
C  2.68  4.65 25.38                                                             
C  2.68  4.65 39.88                                                             
C  2.68  4.65 54.38                                                             
C  2.68  4.65 68.88                                                             
C  6.71  2.32 10.88                                                             
C  6.71  2.32 25.38                                                             
C  6.71  2.32 39.88                                                             
C  6.71  2.32 54.38                                                             
C  6.71  2.32 68.88                                                             
C 10.74  0.00 10.88                                                             
C 10.74  0.00 25.38                                                             
C 10.74  0.00 39.88                                                             
C 10.74  0.00 54.38                                                             
C 10.74  0.00 68.88                                                             
C  2.68  9.30 10.88                                                             
C  2.68  9.30 25.38                                                             
C  2.68  9.30 39.88                                                             
C  2.68  9.30 54.38                                                             
C  2.68  9.30 68.88                                                             
C  6.71  6.97 10.88                                                             
C  6.71  6.97 25.38                                                             
C  6.71  6.97 39.88                                                             
C  6.71  6.97 54.38                                                             
C  6.71  6.97 68.88                                                             
C 10.74  4.65 10.88                                                             
C 10.74  4.65 25.38                                                             
C 10.74  4.65 39.88                                                             
C 10.74  4.65 54.38                                                             
C 10.74  4.65 68.88                                                             
C 14.76  2.32 10.88                                                             
C 14.76  2.32 25.38                                                             
C 14.76  2.32 39.88                                                             
C 14.76  2.32 54.38                                                             
C 14.76  2.32 68.88                                                             
C 18.79  0.00 10.88                                                             
C 18.79  0.00 25.38                                                             
C 18.79  0.00 39.88                                                             
C 18.79  0.00 54.38                                                             
C 18.79  0.00 68.88                                                             
C  2.68 13.95 10.88                                                             
C  2.68 13.95 25.38                                                             
C  2.68 13.95 39.88                                                             
C  2.68 13.95 54.38                                                             
C  2.68 13.95 68.88                                                             
C  6.71 11.62 10.88                                                             
C  6.71 11.62 25.38                                                             
C  6.71 11.62 39.88                                                             
C  6.71 11.62 54.38                                                             
C  6.71 11.62 68.88                                                             
C 10.74  9.30 10.88                                                             
C 10.74  9.30 25.38                                                             
C 10.74  9.30 39.88                                                             
C 10.74  9.30 54.38                                                             
C 10.74  9.30 68.88                                                             
C 14.76  6.97 10.88                                                             
C 14.76  6.97 25.38                                                             
C 14.76  6.97 39.88                                                             
C 14.76  6.97 54.38                                                             
C 14.76  6.97 68.88                                                             
C 18.79  4.65 10.88                                                             
C 18.79  4.65 25.38                                                             
C 18.79  4.65 39.88                                                             
C 18.79  4.65 54.38                                                             
C 18.79  4.65 68.88                                                             
C 22.81  2.32 10.88                                                             
C 22.81  2.32 25.38                                                             
C 22.81  2.32 39.88                                                             
C 22.81  2.32 54.38                                                             
C 22.81  2.32 68.88                                                             
C 26.84  0.00 10.88                                                             
C 26.84  0.00 25.38                                                             
C 26.84  0.00 39.88                                                             
C 26.84  0.00 54.38                                                             
C 26.84  0.00 68.88                                                             
C  6.71 16.27 10.88                                                             
C  6.71 16.27 25.38                                                             
C  6.71 16.27 39.88                                                             
C  6.71 16.27 54.38                                                             
C  6.71 16.27 68.88                                                             
C 10.74 13.95 10.88                                                             
C 10.74 13.95 25.38                                                             
C 10.74 13.95 39.88                                                             
C 10.74 13.95 54.38                                                             
C 10.74 13.95 68.88                                                             
C 14.76 11.62 10.88                                                             
C 14.76 11.62 25.38                                                             
C 14.76 11.62 39.88                                                             
C 14.76 11.62 54.38                                                             
C 14.76 11.62 68.88                                                             
C 18.79  9.30 10.88                                                             
C 18.79  9.30 25.38                                                             
C 18.79  9.30 39.88                                                             
C 18.79  9.30 54.38                                                             
C 18.79  9.30 68.88                                                             
C 22.81  6.97 10.88                                                             
C 22.81  6.97 25.38                                                             
C 22.81  6.97 39.88                                                             
C 22.81  6.97 54.38                                                             
C 22.81  6.97 68.88                                                             
C 26.84  4.65 10.88                                                             
C 26.84  4.65 25.38                                                             
C 26.84  4.65 39.88                                                             
C 26.84  4.65 54.38                                                             
C 26.84  4.65 68.88                                                             
C 30.86  2.32 10.88                                                             
C 30.86  2.32 25.38                                                             
C 30.86  2.32 39.88                                                             
C 30.86  2.32 54.38                                                             
C 30.86  2.32 68.88                                                             
C 14.76 16.27 10.88                                                             
C 14.76 16.27 25.38                                                             
C 14.76 16.27 39.88                                                             
C 14.76 16.27 54.38                                                             
C 14.76 16.27 68.88                                                             
C 18.79 13.95 10.88                                                             
C 18.79 13.95 25.38                                                             
C 18.79 13.95 39.88                                                             
C 18.79 13.95 54.38                                                             
C 18.79 13.95 68.88                                                             
C 22.81 11.62 10.88                                                             
C 22.81 11.62 25.38                                                             
C 22.81 11.62 39.88                                                             
C 22.81 11.62 54.38                                                             
C 22.81 11.62 68.88                                                             
C 26.84  9.30 10.88                                                             
C 26.84  9.30 25.38                                                             
C 26.84  9.30 39.88                                                             
C 26.84  9.30 54.38                                                             
C 26.84  9.30 68.88                                                             
C 30.86  6.97 10.88                                                             
C 30.86  6.97 25.38                                                             
C 30.86  6.97 39.88                                                             
C 30.86  6.97 54.38                                                             
C 30.86  6.97 68.88                                                             
C 22.81 16.27 10.88                                                             
C 22.81 16.27 25.38                                                             
C 22.81 16.27 39.88                                                             
C 22.81 16.27 54.38                                                             
C 22.81 16.27 68.88                                                             
C 26.84 13.95 10.88                                                             
C 26.84 13.95 25.38                                                             
C 26.84 13.95 39.88                                                             
C 26.84 13.95 54.38                                                             
C 26.84 13.95 68.88                                                             
C 30.86 11.62 10.88                                                             
C 30.86 11.62 25.38                                                             
C 30.86 11.62 39.88                                                             
C 30.86 11.62 54.38                                                             
C 30.86 11.62 68.88                                                             
C 30.86 16.27 10.88                                                             
C 30.86 16.27 25.38                                                             
C 30.86 16.27 39.88                                                             
C 30.86 16.27 54.38                                                             
C 30.86 16.27 68.88                                                             
%ENDBLOCK POSITIONS_ABS                                                         

--------------------------------------------------------------------------------
-------------------------------- END INPUT FILE --------------------------------
--------------------------------------------------------------------------------


 
<<<<<<<<<<<<<<<<<<<<<<<<<<<<<<<<< Full system >>>>>>>>>>>>>>>>>>>>>>>>>>>>>>>>>>
<<<<<<<<<<<<<<<<<<<<<<<<<<< PAW Dataset information >>>>>>>>>>>>>>>>>>>>>>>>>>>
File: ~/pp/paw/c_pbe_abinit.paw; rc = 1.25 bohr; shape type =  3; rshape = 1.25 bohr;
  Atomic number:  6;  ionic charge:  4.000000
    Partial Wave 1: l = 0
    Partial Wave 2: l = 0
    Partial Wave 3: l = 1
    Partial Wave 4: l = 1
  Core charge supplied for Nonlinear Core Corrections
<<<<<<<<<<<<<<<<<<<<<<<<<<<<<<<<<<<<<<< >>>>>>>>>>>>>>>>>>>>>>>>>>>>>>>>>>>>>>>

-------------------------- Atom counting information ---------------------------
Symbol    Natoms    Nngwfs    Nprojs
  C        640      2560      5120
.......   ......    ......    ......
Totals:    640      2560      5120
--------------------------------------------------------------------------------

=============================== PSINC grid sizes ===============================
                      Simulation cell:   63 x  35 x 143
                              FFT-box:   63 x  35 x 117
                                  PPD:    7 x   5 x   1
Grid space d1=  0.511269841270a0 (KE cutoff=  29.06054Eh = 790.77748eV)
Grid space d2=  0.531142857143a0 (KE cutoff=  26.92659Eh = 732.70972eV)
Grid space d3=  0.507062937063a0 (KE cutoff=  29.54475Eh = 803.95346eV)
================================================================================
  
WARNING in cell_grid_distribute:
Average of less than one 23-slab per node, so workload cannot be
equally balanced between nodes.

********************* Fourier parallelisation information **********************
       Coarse grid (whole simulation cell) dimensions:     63    35   143
          Real-space ('12') slabs/node (min max mean):      3     4     3
         Recip-space ('23') slabs/node (min max mean):      0     1     0
********************************************************************************

********************* Fourier parallelisation information **********************
       Double grid (whole simulation cell) dimensions:    126    70   286
          Real-space ('12') slabs/node (min max mean):      7     8     7
         Recip-space ('23') slabs/node (min max mean):      1     2     1
********************************************************************************

Atom SCF Calculation for C  : Z (AE atom) =   6 : Z (PS atom) =   4
Config String: 2s2 2p2
Orbitals (num,occ):  2     2.00 2.00
Orbitals   (num,l):  2        0    1
Real-space Grid (nr,dr,rmax): 1293    0.0069659443    9.0000000000
Spherical Bessel Basis (nsws,lmax,cutoff):   37    2  161.4736382572
Confining potential (l,width,scale):  0    3.0000000000  100.0000000000
Confining potential (l,width,scale):  1    3.0000000000  100.0000000000
  1         -5.4691149987   -1.3647045835    4.5135257941   -1.6713568800
  2         -5.5214542834   -1.4154291535    4.4635199061   -1.6585170582
  3         -5.5221055910   -1.4439161209    4.4342087028   -1.6520281659
  4         -5.5287901521   -1.4522301802    4.4259176063   -1.6507873939
  5         -5.5308251003   -1.4557840400    4.4224142384   -1.6502632738
  6         -5.5317252094   -1.4571386008    4.4211068249   -1.6500892907
  7         -5.5320765973   -1.4576738924    4.4205997642   -1.6500256779
  8         -5.5322192721   -1.4578833190    4.4204056023   -1.6500032912
  9         -5.5322765240   -1.4579657561    4.4203308649   -1.6499954152
 10         -5.5322995843   -1.4579982639    4.4203020904   -1.6499927055
 11         -5.5323088576   -1.4580111317    4.4202909828   -1.6499917962
 12         -5.5323125859   -1.4580162439    4.4202866844   -1.6499915030
 13         -5.5323140836   -1.4580182832    4.4202850159   -1.6499914143
 14         -5.5323146847   -1.4580191002    4.4202843659   -1.6499913905
 15         -5.5323149258   -1.4580194290    4.4202841117   -1.6499913858
 16         -5.5323150224   -1.4580195619    4.4202840119   -1.6499913859
Atom SCF converged after  16 iterations to a total energy of     -5.53231502

Determining parallel strategy ...
... using space-filling curve
... NGWF load balancing: max     64;  min     64;  average     64
... Projector load balancing: max    128;  min    128;  average    128
... done
Calculating Ewald energy ...
              Ewald: real-space energy =    9488.921918
        Ewald: reciprocal-space energy =       0.489429
         Ewald: (sum_charge)**2 Energy =   10818.505505
         Ewald: (sum_charge**2) Energy =     855.277957
                          Ewald Energy =   -2184.372114
Basis initialisation ...... NGWF spheres initialised
... Projector spheres initialised
... NGWF tight boxes initialised
... Projector tight boxes initialised
... Tight-boxes gathered
... NGWF basis size (local,global):     692372  27895264
... PAW projector initialisation
... done

============================= Charge Augmentation ==============================
                           Aug box size:   11 x  11 x  11
================================================================================

========================== Sparse matrix information ===========================
                        Overlap matrix filling:  40.31%
                        Density kernel filling: 100.00%
              NGWF-Proj overlap matrix filling:  12.19%
                    Aug Overlap matrix filling:  47.03%
                    Hamiltonian matrix filling:  47.03%
                  NGWF diagonal matrix filling:   0.16%
                             KS matrix filling: 100.00% 
                           KSKS matrix filling: 100.00% 
================================================================================

Sparse matrix initialisation ... done
NGWF initialisation ...... done
============ Calculation of NGWF S^-1 using Hotelling algorithm ================ 
         Iteration  |  Frobenius norm and Maximum abs value    (of I-S*S_n^-1)   
               1       0.48921691E+02     0.97418605E+00
               2       0.47603647E+02     0.95023529E+00
               3       0.45658263E+02     0.90709317E+00
               4       0.43176164E+02     0.83554526E+00
               5       0.40227835E+02     0.73034082E+00
               6       0.36841963E+02     0.67158389E+00
               7       0.33365618E+02     0.62511880E+00
               8       0.30017145E+02     0.58522427E+00
               9       0.26317907E+02     0.53833762E+00
              10       0.21571438E+02     0.46319534E+00
              11       0.15456023E+02     0.34631051E+00
              12       0.86784662E+01     0.19883438E+00
              13       0.31630406E+01     0.70465918E-01
              14       0.50154998E+00     0.10237220E-01
              15       0.14836242E-01     0.26481580E-03
              16       0.16613470E-04     0.22507739E-06
              17       0.31730265E-10     0.26156854E-12
================================================================================
Calculating core density ...
================================= Core Density =================================
               Core den box size:   21 x  21 x  21
================================================================================
 ... done
Up spin density kernel initialisation ...... done

Writing density kernel to file "3.8369616_GO_manual_4x64graphite.dkn" ... done

>>> Optimising kernel for current NGWFs:

--------------------------- Ensemble-DFT optimisation --------------------------
Running ScaLAPACK on   40 processor(s).

--------------------------------------------------------------------------------
  Iter                              Commutator    Free_energy(A=E-TS)     DeltaA
#    0                          0.000048437278   -3679.70856547771837  -3.68E+03

Step                       =       0.381966011250
Energy                     =   -3679.708534106590
Entropy (-TS)              =      -0.000031371195
Free energy (A=E-TS)       =   -3679.708565477718
Est. 0K Energy 0.5*(E+A)   =   -3679.708549792154
Residual Non-orthogonality =       0.000000000000
Residual N_electrons       =       0.000000000067

Spin          Integrated_Ne            Fermi_level     Delta_Fermi_level
   1      2559.999999999533         0.143914863037              1.44E-01

                           Spin 1          
     Orb      H-eigenvalues     Occupancies
       1 |    -0.5708197532    1.0000000000 | 
                          ------
    1276 |     0.1090058828    0.9999836846 | 
    1277 |     0.1095717872    0.9999804924 | 
    1278 |     0.1096160548    0.9999802178 | 
    1279 |     0.1096286711    0.9999801388 | 
    1280 |     0.1101956553    0.9999762448 | 
                 - Gap at zero temperature -
    1281 |     0.1796425387    0.0000125987 | 
    1282 |     0.1796570329    0.0000125411 | 
    1283 |     0.1796610488    0.0000125252 | 
    1284 |     0.1797791966    0.0000120666 | 
    1285 |     0.1797973375    0.0000119976 | 
                          ------
    2560 |     0.9639840676    0.0000000000 | 

                       |  Abs_value |  Threshold | Converged
     Delta_Free_energy |   3.68E+03 |   1.00E-06 |        No
     Delta_Energy      |   3.68E+03 |   1.00E-04 |        No
     Delta_Entropy     |   3.14E-05 |   1.00E-04 |       Yes
     Commutator        |   4.84E-05 |   1.00E-05 |        No
     Delta_Fermi_level |   1.44E-01 |   1.00E-03 |        No

  Line search of the free energy minimum:
  Step_type        Step             Free_energy   Predicted_free_energy
.   Initial    0.000000    -3679.70856547771837
.    Trial1    0.381966    -3679.71114898176847
.    Trial2    0.618034    -3679.71189068225203
. Quadratic    0.768070    -3679.71202552863451    -3679.71202260051041

--------------------------------------------------------------------------------
  Iter                              Commutator    Free_energy(A=E-TS)     DeltaA
#    1                          0.000023393994   -3679.71202552863451  -3.46E-03

Step                       =       0.768070147787
Energy                     =   -3679.711995242924
Entropy (-TS)              =      -0.000030285857
Free energy (A=E-TS)       =   -3679.712025528635
Est. 0K Energy 0.5*(E+A)   =   -3679.712010385779
Residual Non-orthogonality =       0.000000000000
Residual N_electrons       =       0.000000000146

Spin          Integrated_Ne            Fermi_level     Delta_Fermi_level
   1      2559.999999998979         0.142923015244             -9.92E-04

                           Spin 1          
     Orb      H-eigenvalues     Occupancies
       1 |    -0.5754581591    1.0000000000 | 
                          ------
    1276 |     0.1079534120    0.9999839940 | 
    1277 |     0.1083742754    0.9999817190 | 
    1278 |     0.1083757413    0.9999817105 | 
    1279 |     0.1085094403    0.9999809219 | 
    1280 |     0.1089324540    0.9999781955 | 
                 - Gap at zero temperature -
    1281 |     0.1786730460    0.0000125100 | 
    1282 |     0.1786920716    0.0000124351 | 
    1283 |     0.1787088344    0.0000123695 | 
    1284 |     0.1788208370    0.0000119396 | 
    1285 |     0.1788497163    0.0000118312 | 
                          ------
    2560 |     0.9607480879    0.0000000000 | 

                       |  Abs_value |  Threshold | Converged
     Delta_Free_energy |   3.46E-03 |   1.00E-06 |        No
     Delta_Energy      |   3.46E-03 |   1.00E-04 |        No
     Delta_Entropy     |   1.09E-06 |   1.00E-04 |       Yes
     Commutator        |   2.34E-05 |   1.00E-05 |        No
     Delta_Fermi_level |   9.92E-04 |   1.00E-03 |       Yes

  Line search of the free energy minimum:
  Step_type        Step             Free_energy   Predicted_free_energy
.   Initial    0.000000    -3679.71202552863451
.    Trial1    0.768070    -3679.70982107380814
.    Trial2    0.293377    -3679.71252106340125
. Quadratic    0.234620    -3679.71255443523978    -3679.71255422187551

--------------------------------------------------------------------------------
  Iter                              Commutator    Free_energy(A=E-TS)     DeltaA
#    2                          0.000009763598   -3679.71255443523978  -5.29E-04

Step                       =       0.234619665447
Energy                     =   -3679.712524240812
Entropy (-TS)              =      -0.000030194527
Free energy (A=E-TS)       =   -3679.712554435240
Est. 0K Energy 0.5*(E+A)   =   -3679.712539338026
Residual Non-orthogonality =       0.000000000000
Residual N_electrons       =       0.000000000098

Spin          Integrated_Ne            Fermi_level     Delta_Fermi_level
   1      2559.999999999311         0.142870265069             -5.28E-05

                           Spin 1          
     Orb      H-eigenvalues     Occupancies
       1 |    -0.5757770117    1.0000000000 | 
                          ------
    1276 |     0.1078434762    0.9999842804 | 
    1277 |     0.1083458252    0.9999815782 | 
    1278 |     0.1083464765    0.9999815744 | 
    1279 |     0.1083985772    0.9999812687 | 
    1280 |     0.1089023888    0.9999780387 | 
                 - Gap at zero temperature -
    1281 |     0.1786649045    0.0000123350 | 
    1282 |     0.1786843935    0.0000122594 | 
    1283 |     0.1786999162    0.0000121994 | 
    1284 |     0.1788145538    0.0000117657 | 
    1285 |     0.1788425347    0.0000116622 | 
                          ------
    2560 |     0.9605272981    0.0000000000 | 

                       |  Abs_value |  Threshold | Converged
     Delta_Free_energy |   5.29E-04 |   1.00E-06 |        No
     Delta_Energy      |   5.29E-04 |   1.00E-04 |        No
     Delta_Entropy     |   9.13E-08 |   1.00E-04 |       Yes
     Commutator        |   9.76E-06 |   1.00E-05 |       Yes
     Delta_Fermi_level |   5.28E-05 |   1.00E-03 |       Yes

  Line search of the free energy minimum:
  Step_type        Step             Free_energy   Predicted_free_energy
.   Initial    0.000000    -3679.71255443523978
.    Trial1    0.234620    -3679.71263254254927
.    Trial2    0.526969    -3679.71264342265158
. Quadratic    0.413956    -3679.71265057892879    -3679.71265058920608

--------------------------------------------------------------------------------
  Iter                              Commutator    Free_energy(A=E-TS)     DeltaA
#    3                          0.000006160877   -3679.71265057892879  -9.61E-05

Step                       =       0.413956488070
Energy                     =   -3679.712620510221
Entropy (-TS)              =      -0.000030068871
Free energy (A=E-TS)       =   -3679.712650578929
Est. 0K Energy 0.5*(E+A)   =   -3679.712635544575
Residual Non-orthogonality =       0.000000000000
Residual N_electrons       =       0.000000000164

Spin          Integrated_Ne            Fermi_level     Delta_Fermi_level
   1      2559.999999998854         0.142796978378             -7.33E-05

                           Spin 1          
     Orb      H-eigenvalues     Occupancies
       1 |    -0.5761962418    1.0000000000 | 
                          ------
    1276 |     0.1077273522    0.9999844916 | 
    1277 |     0.1082750145    0.9999815638 | 
    1278 |     0.1082752767    0.9999815622 | 
    1279 |     0.1082810587    0.9999815286 | 
    1280 |     0.1088298728    0.9999780334 | 
                 - Gap at zero temperature -
    1281 |     0.1786252986    0.0000122046 | 
    1282 |     0.1786452204    0.0000121280 | 
    1283 |     0.1786594076    0.0000120738 | 
    1284 |     0.1787766072    0.0000116351 | 
    1285 |     0.1788035950    0.0000115364 | 
                          ------
    2560 |     0.9602591046    0.0000000000 | 

                       |  Abs_value |  Threshold | Converged
     Delta_Free_energy |   9.61E-05 |   1.00E-06 |        No
     Delta_Energy      |   9.63E-05 |   1.00E-04 |       Yes
     Delta_Entropy     |   1.26E-07 |   1.00E-04 |       Yes
     Commutator        |   6.16E-06 |   1.00E-05 |       Yes
     Delta_Fermi_level |   7.33E-05 |   1.00E-03 |       Yes

  Line search of the free energy minimum:
  Step_type        Step             Free_energy   Predicted_free_energy
.   Initial    0.000000    -3679.71265057892879
.    Trial1    0.413956    -3679.71267492943480
.    Trial2    0.637805    -3679.71262214439548
. Quadratic    0.270648    -3679.71268442541532    -3679.71268441653183

--------------------------------------------------------------------------------
  Iter                              Commutator    Free_energy(A=E-TS)     DeltaA
#    4                          0.000003888423   -3679.71268442541532  -3.38E-05

Step                       =       0.270648046417
Energy                     =   -3679.712654406451
Entropy (-TS)              =      -0.000030018787
Free energy (A=E-TS)       =   -3679.712684425415
Est. 0K Energy 0.5*(E+A)   =   -3679.712669415933
Residual Non-orthogonality =       0.000000000000
Residual N_electrons       =      -0.000000000178

Spin          Integrated_Ne            Fermi_level     Delta_Fermi_level
   1      2560.000000001244         0.142769848421             -2.71E-05

                           Spin 1          
     Orb      H-eigenvalues     Occupancies
       1 |    -0.5763571901    1.0000000000 | 
[...]
 C   275 -- C   555       -0.10      5.37000
 C   274 -- C   554       -0.10      5.37000
 C   273 -- C   553       -0.10      5.37000
 C   272 -- C   552       -0.10      5.37000
 C   271 -- C   551       -0.10      5.37000
 C   270 -- C   550       -0.10      5.37000
 C   269 -- C   549       -0.10      5.37000
 C   268 -- C   548       -0.10      5.37000
 C   267 -- C   547       -0.10      5.37000
 C   266 -- C   546       -0.10      5.37000
 C   130 -- C   465       -0.09      5.37000
 C   129 -- C   464       -0.09      5.37000
 C   128 -- C   463       -0.09      5.37000
 C   127 -- C   462       -0.09      5.37000
 C   126 -- C   461       -0.09      5.37000
 C   240 -- C   525       -0.10      5.37000
 C   239 -- C   524       -0.10      5.37000
 C   238 -- C   523       -0.10      5.37000
 C   237 -- C   522       -0.10      5.37000
 C   236 -- C   521       -0.10      5.37000
 C    23 -- C   478       -0.09      5.37202
 C    49 -- C   469       -0.09      5.37202
 C    48 -- C   468       -0.09      5.37202
 C    47 -- C   467       -0.09      5.37202
 C    22 -- C   477       -0.09      5.37202
 C    46 -- C   466       -0.09      5.37202
 C    21 -- C   476       -0.09      5.37202
 C    25 -- C   480       -0.09      5.37202
 C    24 -- C   479       -0.09      5.37202
 C    50 -- C   470       -0.09      5.37202
 C    24 -- C   449       -0.09      5.37202
 C     6 -- C   416       -0.09      5.37202
 C    23 -- C   448       -0.09      5.37202
 C    22 -- C   447       -0.09      5.37202
 C    10 -- C   470       -0.09      5.37202
 C     5 -- C   450       -0.09      5.37202
 C    21 -- C   446       -0.09      5.37202
 C    10 -- C   420       -0.09      5.37202
 C     9 -- C   469       -0.09      5.37202
 C     9 -- C   419       -0.09      5.37202
 C     8 -- C   468       -0.09      5.37202
 C     4 -- C   449       -0.09      5.37202
 C     8 -- C   418       -0.09      5.37202
 C   285 -- C   580       -0.09      5.37202
 C   284 -- C   579       -0.09      5.37202
 C   283 -- C   578       -0.09      5.37202
 C   282 -- C   577       -0.09      5.37202
 C   281 -- C   576       -0.09      5.37202
 C     2 -- C   447       -0.09      5.37202
 C     7 -- C   467       -0.09      5.37202
 C   260 -- C   605       -0.09      5.37202
 C   259 -- C   604       -0.09      5.37202
 C   258 -- C   603       -0.09      5.37202
 C   257 -- C   602       -0.09      5.37202
 C   256 -- C   601       -0.09      5.37202
 C     7 -- C   417       -0.09      5.37202
 C     1 -- C   446       -0.09      5.37202
 C     6 -- C   466       -0.09      5.37202
 C    25 -- C   450       -0.09      5.37202
 C     3 -- C   448       -0.09      5.37202
 C   219 -- C   569       -0.09      5.37202
 C   218 -- C   568       -0.09      5.37202
 C   217 -- C   567       -0.09      5.37202
 C   216 -- C   566       -0.09      5.37202
 C   250 -- C   540       -0.09      5.37202
 C   249 -- C   539       -0.09      5.37202
 C   248 -- C   538       -0.09      5.37202
 C   247 -- C   537       -0.09      5.37202
 C   246 -- C   536       -0.09      5.37202
 C   220 -- C   570       -0.09      5.37202
 C   205 -- C   550       -0.09      5.37202
 C   204 -- C   549       -0.09      5.37202
 C   203 -- C   548       -0.09      5.37202
 C   202 -- C   547       -0.09      5.37202
 C   201 -- C   546       -0.09      5.37202
 C    95 -- C   365       -0.09      5.37202
 C    94 -- C   364       -0.09      5.37202
 C    93 -- C   363       -0.09      5.37202
 C    92 -- C   362       -0.09      5.37202
 C    91 -- C   361       -0.09      5.37202
 C    65 -- C   395       -0.09      5.37202
 C    64 -- C   394       -0.09      5.37202
 C    63 -- C   393       -0.09      5.37202
 C    30 -- C   355       -0.09      5.37202
 C    62 -- C   392       -0.09      5.37202
 C    61 -- C   391       -0.09      5.37202
 C    29 -- C   354       -0.09      5.37202
 C   260 -- C   550       -0.09      5.37202
 C   259 -- C   549       -0.09      5.37202
 C    28 -- C   353       -0.09      5.37202
 C   258 -- C   548       -0.09      5.37202
 C   257 -- C   547       -0.09      5.37202
 C   256 -- C   546       -0.09      5.37202
 C    27 -- C   352       -0.09      5.37202
 C    26 -- C   351       -0.09      5.37202
 C    55 -- C   335       -0.09      5.37202
 C    54 -- C   334       -0.09      5.37202
 C    53 -- C   333       -0.09      5.37202
 C   230 -- C   580       -0.09      5.37202
 C   230 -- C   525       -0.09      5.37202
 C   229 -- C   579       -0.09      5.37202
 C   229 -- C   524       -0.09      5.37202
 C   228 -- C   578       -0.09      5.37202
 C    52 -- C   332       -0.09      5.37202
 C   228 -- C   523       -0.09      5.37202
 C   227 -- C   577       -0.09      5.37202
 C   227 -- C   522       -0.09      5.37202
 C   226 -- C   576       -0.09      5.37202
 C   226 -- C   521       -0.09      5.37202
 C    51 -- C   331       -0.09      5.37202
 C   220 -- C   515       -0.09      5.37202
 C   219 -- C   514       -0.09      5.37202
 C   218 -- C   513       -0.09      5.37202
 C   217 -- C   512       -0.09      5.37202
 C   216 -- C   511       -0.09      5.37202
 C   195 -- C   540       -0.09      5.37202
 C   195 -- C   500       -0.09      5.37202
 C   194 -- C   539       -0.09      5.37202
 C   194 -- C   499       -0.09      5.37202
 C   193 -- C   538       -0.09      5.37202
 C   193 -- C   498       -0.09      5.37202
 C   192 -- C   537       -0.09      5.37202
 C   192 -- C   497       -0.09      5.37202
 C   191 -- C   536       -0.09      5.37202
 C   191 -- C   496       -0.09      5.37202
 C   180 -- C   515       -0.09      5.37202
 C   179 -- C   514       -0.09      5.37202
 C   178 -- C   513       -0.09      5.37202
 C   177 -- C   512       -0.09      5.37202
 C   176 -- C   511       -0.09      5.37202
 C   150 -- C   440       -0.09      5.37202
 C   149 -- C   439       -0.09      5.37202
 C   148 -- C   438       -0.09      5.37202
 C   147 -- C   437       -0.09      5.37202
 C   146 -- C   436       -0.09      5.37202
 C   135 -- C   460       -0.09      5.37202
 C   134 -- C   459       -0.09      5.37202
 C   133 -- C   458       -0.09      5.37202
 C   132 -- C   457       -0.09      5.37202
 C   131 -- C   456       -0.09      5.37202
 C    11 -- C   331       -0.09      5.37202
 C    95 -- C   425       -0.09      5.37202
 C    94 -- C   424       -0.09      5.37202
 C    93 -- C   423       -0.09      5.37202
 C    92 -- C   422       -0.09      5.37202
 C    91 -- C   421       -0.09      5.37202
 C    85 -- C   355       -0.09      5.37202
 C    40 -- C   365       -0.09      5.37202
 C    84 -- C   354       -0.09      5.37202
 C    83 -- C   353       -0.09      5.37202
 C    82 -- C   352       -0.09      5.37202
 C    39 -- C   364       -0.09      5.37202
 C    81 -- C   351       -0.09      5.37202
 C    38 -- C   363       -0.09      5.37202
 C    37 -- C   362       -0.09      5.37202
 C    36 -- C   361       -0.09      5.37202
 C    15 -- C   335       -0.09      5.37202
 C    65 -- C   345       -0.09      5.37202
 C    64 -- C   344       -0.09      5.37202
 C    63 -- C   343       -0.09      5.37202
 C    30 -- C   325       -0.09      5.37202
 C    62 -- C   342       -0.09      5.37202
 C    14 -- C   334       -0.09      5.37202
 C    61 -- C   341       -0.09      5.37202
 C    29 -- C   324       -0.09      5.37202
 C    28 -- C   323       -0.09      5.37202
 C    13 -- C   333       -0.09      5.37202
 C    27 -- C   322       -0.09      5.37202
 C   120 -- C   395       -0.09      5.37202
 C    55 -- C   385       -0.09      5.37202
 C   119 -- C   394       -0.09      5.37202
 C   118 -- C   393       -0.09      5.37202
 C   117 -- C   392       -0.09      5.37202
 C    54 -- C   384       -0.09      5.37202
 C    26 -- C   321       -0.09      5.37202
 C   116 -- C   391       -0.09      5.37202
 C    53 -- C   383       -0.09      5.37202
 C    12 -- C   332       -0.09      5.37202
 C    52 -- C   382       -0.09      5.37202
 C    51 -- C   381       -0.09      5.37202
 C   106 -- C   436       -0.09      5.37202
 C   106 -- C   376       -0.09      5.37202
 C    80 -- C   410       -0.09      5.37202
 C    79 -- C   409       -0.09      5.37202
 C    78 -- C   408       -0.09      5.37202
 C    77 -- C   407       -0.09      5.37202
 C    76 -- C   406       -0.09      5.37202
 C   135 -- C   410       -0.09      5.37202
 C   134 -- C   409       -0.09      5.37202
 C   133 -- C   408       -0.09      5.37202
 C   132 -- C   407       -0.09      5.37202
 C   131 -- C   406       -0.09      5.37202
 C   110 -- C   440       -0.09      5.37202
 C   110 -- C   380       -0.09      5.37202
 C   109 -- C   439       -0.09      5.37202
 C   109 -- C   379       -0.09      5.37202
 C   108 -- C   438       -0.09      5.37202
 C   108 -- C   378       -0.09      5.37202
 C   107 -- C   437       -0.09      5.37202
 C   107 -- C   377       -0.09      5.37202
 C   215 -- C   635       -0.09      5.38000
 C   214 -- C   634       -0.09      5.38000
 C   213 -- C   633       -0.09      5.38000
 C   212 -- C   632       -0.09      5.38000
 C   211 -- C   631       -0.09      5.38000
 C   190 -- C   620       -0.09      5.38000
 C   189 -- C   619       -0.09      5.38000
 C   188 -- C   618       -0.09      5.38000
 C   187 -- C   617       -0.09      5.38000
 C   186 -- C   616       -0.09      5.38000
 C   175 -- C   595       -0.09      5.38000
 C   174 -- C   594       -0.09      5.38000
 C   173 -- C   593       -0.09      5.38000
 C   172 -- C   592       -0.09      5.38000
 C   171 -- C   591       -0.09      5.38000
 C   245 -- C   640       -0.09      5.38000
 C   244 -- C   639       -0.09      5.38000
 C   243 -- C   638       -0.09      5.38000
 C   242 -- C   637       -0.09      5.38000
 C   241 -- C   636       -0.09      5.38000
==================================================


=================== Orbital energy and occupancy information ===================

      Total number of orbitals:    2560
        Occupancy sum (kernel):    1280.000000001
   Occupancy sum (eigenvalues):    1280.000000001
                 HOMO-LUMO gap:       0.000018113 Eh
                 Mid-gap level:       0.239064652 Eh

                        Orbital | Energy (Eh) | Occupancy
                            1    -0.511764110   1.0000000
                        .......   ...........   .........
                         1272     0.168275347   0.9999883
                         1273     0.168715906   0.9999865
                         1274     0.168743734   0.9999864
                         1275     0.170788856   0.9999741
                         1276     0.170795760   0.9999740
                         1277     0.171256630   0.9999699
                         1278     0.171263544   0.9999699
                         1279     0.171646742   0.9999660
                         1280     0.172112970   0.9999606
                         1281     0.239055595   0.0000167
                        ....... -- gap at 0K -- .........
                         1282     0.239073709   0.0000166
                         1283     0.239311182   0.0000154
                         1284     0.239329595   0.0000154
                         1285     0.239347968   0.0000153
                         1286     0.239363746   0.0000152
                         1287     0.239559747   0.0000143
                         1288     0.239613091   0.0000140
                         1289     0.239628849   0.0000140
                         1290     0.239656989   0.0000138
                         1291     0.239677324   0.0000138
                        .......   ...........   .........
                         2560     1.085556223   0.0000000

================================================================================

===================== Writing canonical molecular orbitals =====================
| Orbital  Energy (eV)  Norm     |
| HOMO      6.50503374  1.000000 | Writing "3.8369616_GO_manual_4x64graphite_HOMO.cube" ... done
Writing "3.8369616_GO_manual_4x64graphite_HOMO.dx" ... done
| LUMO      6.50552663  1.000000 | Writing "3.8369616_GO_manual_4x64graphite_LUMO.cube" ... done
Writing "3.8369616_GO_manual_4x64graphite_LUMO.dx" ... done
================================================================================
 
===================== Density of States (DOS) calculation ======================
Writing "3.8369616_GO_manual_4x64graphite_DOS.txt" ...  done
================================================================================
 
Writing bands to file "3.8369616_GO_manual_4x64graphite.val_bands" ... done
 
================ Projected Density of States (pDOS) calculation ================
 
Constructing AM resolved functions  ...... done
Writing NGWF plot files in formats: CUBE DX ...  done
 
Performing overlap integrals ...  done
 
Computing pDOS weights ...  done
 
All bands spilling parameter =   2.97 %
Occupancy-weighted spilling parameter =   0.98 %
 
 => Outputting data for OptaDOS <=
 
Writing pDOS weights to file "3.8369616_GO_manual_4x64graphite.val_pdos_bin" ... done
 
Writing band gradients to file "3.8369616_GO_manual_4x64graphite.val_dome_bin" ... done
 
Writing Castep output cell file to "3.8369616_GO_manual_4x64graphite-out.cell" ... done
 
 => Computing Gaussian smeared pDOS <= 
Writing "3.8369616_GO_manual_4x64graphite_PDOS.txt" ...  done
 
 => Computing Occupancy-weighted Gaussian smeared pDOS <= 
Writing "3.8369616_GO_manual_4x64graphite_occ_PDOS.txt" ...  done
  => Band centres: 
 S band centre of group 1:  -15.605660 eV
 P band centre of group 1:   -8.492818 eV
  Band centres done. <=
  => Integrated number of electrons in each AM band: 
 S num electrons of group 1:  574.328553
 P num electrons of group 1: 1960.603489
  Integrated number of electrons done. <=
================================================================================

------------------------------ TIMING INFORMATION ------------------------------
AVERAGE TIME:    3143.758s on     40 node(s)                                    
TOTAL TIME:      3143.758s on     40 node(s)                                    
================= AVERAGE TIMINGS FROM ALL NODES (CUMULATIVE) ==================
|| TAG                                    #calls    cpu time   %total  Gflops ||
|| work_imbalance                       :     1        0.00s   0.000%  ------ ||
|| paw_tcore_hartree_on_grid            :     1        0.00s   0.000%  ------ ||
|| paw_tcore_density                    :     1        0.01s   0.000%  ------ ||
|| paw_sphere_density_on_grid           :     1        0.01s   0.000%  ------ ||
|| sparse_set_to_garbage                :   135        0.02s   0.001%  ------ ||
|| paw_dij_hartree                      :   283        0.04s   0.001%  ------ ||
|| pseudo_make_structure_factor         :     1        0.06s   0.002%  ------ ||
|| basis_extract_function_from_box      :  1536        0.06s   0.002%  ------ ||
|| paw_species_calc_proj_prec_mat       :     1        0.13s   0.004%  ------ ||
|| paw_dataset_init                     :     1        0.15s   0.005%  ------ ||
|| density_init_guess_real              :     1        0.17s   0.005%  ------ ||
|| restart_kernel_write                 :    13        0.64s   0.020%  ------ ||
|| ngwfs_initialise_from_radial         :     2        0.66s   0.021%  ------ ||
|| sparse_init                          :     1        0.88s   0.028%  ------ ||
|| hartree_on_grid                      :   213        1.19s   0.038%  ------ ||
|| dense_normal_eigensolve              :     1        1.26s   0.040%  ------ ||
|| projectors_init_fftbox_recip         :   121        2.34s   0.074%  ------ ||
|| ewald_calculate_energy               :     1        3.24s   0.103%  ------ ||
|| fourier_apply_box_pair               :  2272        3.76s   0.120% 560.073 ||
|| basis_copy_function_to_box           : 20224        4.37s   0.139%  ------ ||
|| augmentation_screen_dij              :   218        4.72s   0.150%  ------ ||
|| sparse_embed_hotelling_invert_embed  :    23        6.54s   0.208%  ------ ||
|| sw_init                              :     1        6.73s   0.214%  ------ ||
|| ngwf_gradient_coeffs                 :    12        8.46s   0.269%  ------ ||
|| sparse_trace                         :  2564       11.71s   0.373%  ------ ||
|| fourier_apply_cell_backward          :  6574       14.90s   0.474%  59.803 ||
|| fourier_apply_cell_forward           :  6149       15.40s   0.490%  54.110 ||
|| cell_grid_extract_box_real           :  8556       16.63s   0.529%  ------ ||
|| paw_dij_xc                           :   283       19.44s   0.618%  ------ ||
|| cell_grid_deposit_box_real           : 27440       19.85s   0.631%  ------ ||
|| aug_nonlocal_mat                     :   271       28.20s   0.897%  ------ ||
|| augmentation_density_on_grid         :   213       37.77s   1.202%  ------ ||
|| density_fftbox_deposit_to_cell       : 13632       41.01s   1.305%  ------ ||
|| function_ops_brappd_ketppd           :    48       47.63s   1.515%  ------ ||
|| hamiltonian_energy_components        :     3       48.17s   1.532%  ------ ||
|| projectors_func_ovlp_box             :    24       53.59s   1.705%  ------ ||
|| eigenstates_pdos                     :     1       56.33s   1.792%  ------ ||
|| eigenstates_calculate                :     1       60.91s   1.938%  ------ ||
|| nlxc_vdw_energy                      :   424       63.08s   2.007%  ------ ||
|| xc_energy_potential                  :   212       67.91s   2.160%  ------ ||
|| integrals_kinetic                    :    23       77.27s   2.458%  ------ ||
|| sparse_product                       :  2591      103.46s   3.291%  ------ ||
|| dense_eigensolve                     :   186      105.84s   3.367%  ------ ||
|| potential_apply_to_ngwf_batch        :   268      108.19s   3.441%  ------ ||
|| properties_calculate                 :     1      109.91s   3.496%  ------ ||
|| restart_ngwfs_tightbox_output        :    11      117.49s   3.737%  ------ ||
|| basis_dot_function_with_box          : 6.144M     168.49s   5.360%  ------ ||
|| fourier_apply_box                    : 63696      198.02s   6.299% 977.953 ||
|| projectors_gradient_batch            :    48      217.87s   6.930%  ------ ||
|| edft_diag_ngwf_ham                   :   185      220.45s   7.012%  ------ ||
|| integrals_locpot_mat_els_batch       :   268      229.49s   7.300%  ------ ||
|| density_fftbox_interpolate_multiply  : 13632      264.89s   8.426%  ------ ||
|| projectors_grad_precond_batch        :    48      300.61s   9.562%  ------ ||
|| integrals_locpot_dbl_grid            :    67      338.79s  10.776%  ------ ||
|| density_batch_interp_deposit         :   852      342.19s  10.885%  ------ ||
|| edft_apply_smearing_operator         :   185      417.79s  13.290%  ------ ||
|| basis_add_function_to_box            : 17.24M     456.20s  14.511%  ------ ||
|| ngwf_gradient_build_batch            :    48      555.14s  17.659%  ------ ||
|| density_batch_row_sums               :   852      655.25s  20.843%  ------ ||
|| ngwf_gradient_batch                  :    48      731.14s  23.257%  ------ ||
|| ngwf_gradient_lnv                    :    12      753.67s  23.973%  ------ ||
|| density_on_dbl_grid                  :   213     1008.91s  32.092%  ------ ||
|| hamiltonian_lhxc_calculate           :   208     1091.42s  34.717%  ------ ||
|| edft_calculate                       :    12     1826.75s  58.107%  ------ ||
|| ngwf_cg_optimise                     :     1     3008.62s  95.701%  ------ ||
|| total_time                           :     1     3143.76s 100.000%  ------ ||
================================================================================
Overhead of generating timer report: 
- 0 ms averaging over threads,
- 5 ms ensuring consistency across MPI ranks,
- 0 ms printing in order.

Job completed: 29-02-2020 12:24 (-0000)

