 +---------------------------------------------------------------+
 |                                                               |
 |        ####### #     # ####### ####### ####### ######         |
 |        #     # ##    # #          #    #       #     #        |
 |        #     # # #   # #          #    #       #     #        |
 |        #     # #  #  # #####      #    #####   ######         |
 |        #     # #   # # #          #    #       #              |
 |        #     # #    ## #          #    #       #              |
 |        ####### #     # #######    #    ####### #              |
 |                                                               |
 |        Linear-Scaling Ab Initio Total Energy Program          |
 |                                                               |
 |          Release for academic collaborators of ODG            |
 |                                             Version 5.3.2.12  |
 |                                                               |
 +---------------------------------------------------------------+
 |                                                               |
 |  Authors:                                                     |
 |  Jacek Dziedzic, Peter D. Haynes, Nicholas D. M. Hine,        |
 |  Arash. A. Mostofi, Mike C. Payne and Chris-Kriton Skylaris   |
 |                                                               |
 |  Contributors:                                                |
 |  J. Aarons, L. Andrinopoulos, P. W. Avraam, R. A. Bell,       |
 |  A. Bhandari, G. A. Bramley, R. J. Charlton, S. J. Clark,     |
 |  R. J. Clements, G. C. Constantinescu, F. Corsetti,           |
 |  N. Corsini, O. Dieguez, S. M. M. Dubois, K. K. B. Duff,      |
 |  J. M. Escartin, A. Greco, H. Helal, Q. O. Hill, L. P. Lee,   |
 |  J.-H. Li, E. B. Linscott, G. Moynihan, D. D. O`Regan,        |
 |  O. K. Okan, M. J. S. Phipps, C. J. Pickard,                  |
 |  J. C. A. Prentice, M. I. J. Probert, L. E. Ratcliff,         |
 |  M. Robinson, A. Ruiz Serrano, J. S. Spencer, E. W. Tait,     |
 |  G. Teobaldi, D. Turban, V. Vitale, K. A. Wilkinson,          |
 |  C. Weber, J. C. Womack, N. Yeung and T. J. Zuehlsdorff       |
 |                                                               |
 |                                   Copyright (c) 2004-2020     |
 |                                                               |
 |  Please cite:                                                 |
 |  "Introducing ONETEP: Linear-scaling density functional       |
 |   simulations on parallel computers".                         |
 |   C.-K. Skylaris, P. D. Haynes, A. A. Mostofi, M. C. Payne.   |
 |   J. Chem. Phys. 122 084119 (2005).                           |
 |                                                               |
 |          in all publications arising from your use of ONETEP. |
 |                                                               |
 +---------------------------------------------------------------+
 |                                                               |
 |   ONETEP is based on developments described in the following  |
 |   publications:                                               |
 |                                                               |
 |  "Nonorthogonal generalized Wannier function pseudopotential  |
 |   plane-wave method".                                         |
 |   C.-K. Skylaris, A. A. Mostofi, P. D. Haynes, O. Dieguez,    |
 |   M. C. Payne.                                                |
 |   Phys. Rev. B 66 035119 (2002).                              |
 |                                                               |
 |  "Preconditioned iterative minimization for linear-scaling    |
 |   electronic structure calculations".                         |
 |   A. A. Mostofi, P. D. Haynes, C.-K. Skylaris, M. C. Payne.   |
 |   J. Chem. Phys. 119(17), pp.8842-8848 (2003).                |
 |                                                               |
 |  "Total-energy calculations on a real space grid with         |
 |   localized functions and a plane-wave basis".                |
 |   A. A. Mostofi, C.-K. Skylaris, P. D. Haynes, M. C. Payne.   |
 |   Comput. Phys. Commun. 147, pp.788-802 (2002).               |
 |                                                               |
 |  "Accurate kinetic energy evaluation in electronic structure  |
 |   calculations with localized functions on real space grids"  |
 |   C.-K. Skylaris, A. A. Mostofi, P. D. Haynes, C. J. Pickard, |
 |   M. C. Payne.                                                |
 |   Comput. Phys. Commun. 140, pp.315-322 (2001).               |
 |                                                               |
 |  "Accurate ionic forces and geometry optimization in linear-  |
 |   scaling density-functional theory with local orbitals"      |
 |   N. D. M. Hine, M. Robinson, P. D. Haynes, C.-K. Skylaris,   |
 |   M. C. Payne, and A. A. Mostofi.                             |
 |   Phys. Rev. B 83 195102 (2011).                              |
 |                                                               |
 +---------------------------------------------------------------+

Job started: 06-03-2020 02:45 (-0000)
 
Reading parameters from file "4.158936_GO_manual_4x64graphite.dat" ...

WARNING: "cutoff_energy" not specified, but "psinc_spacing" specified.
         Using the latter to set the KE cutoff energy to  732.32021eV,
         thus *overriding* the default.

... done

If your calculation crashes here, before "Checking processes and threads..."
is displayed, then your stack size is insufficient.
If so, use "ulimit -s unlimited" at runtime.
You can disable this check with "check_stack_size F".

Checking processes and threads...
   Determining the default number of threads...
      No default threads set at compilation time: defaulting to 1.
      OpenMP library call suggests 4 threads.
      Hybrid MPI-OpenMP compilation detected.
      Number of MPI processes > 1.
      OMP_NUM_THREADS environment variable present and
      its value matches the one obtained from the OpenMP library call.
      Using this value as default.
      Default threads: 4
      Default applies to threads_max and threads_num_fftboxes.
      Settings in the input file override this default.
   ... done

   Running with 40 MPI processes.
   There are 10 MPI processes running on the same node as the root process.
   Each MPI process is using: 
               1 threads for simulation cell FFTs.
               1 threads for parallel FFT box operations.
               4 threads for loops over batched FFT box operations.
               4 threads in other parallel regions.
... done

Basic input checks...
Resetting ngwf_cg_rotate to TRUE for EDFT calculations
... done

Reading geometry and species blocks from file "4.158936_GO_manual_4x64graphite.dat" ...
    
  PSINC grid spacing along a1 set to   0.511215680000a0 from input file.
  PSINC grid spacing along a2 set to   0.531284090000a0 from input file.
  PSINC grid spacing along a3 set to   0.507049430000a0 from input file.
  Number of PPD points along a3 set to 1.  This is 
  the default value, it may have been provided also in the input file.
... done
 Writing xyz coordinates to file "4.158936_GO_manual_4x64graphite.xyz" ... done


--------------------------------------------------------------------------------
---------------------------------- INPUT FILE ----------------------------------
--------------------------------------------------------------------------------

task : singlepoint                                                              
do_properties : true                                                            
dx_format T                                                                     
edft T                                                                          
output_detail VERBOSE                                                           
write_xyz T                                                                     
xc_functional VDWDF2                                                            
PSINC_SPACING 0.51121568 0.53128409 0.50704943                                  
paw T                                                                           
pdos_max_l = 2                                                                  
dos_smear  0.1 eV                                                               
popn_calculate T                                                                
PDOS_PSEUDOATOMIC T                                                             
PDOS_REDUCE_SWS F                                                               
PDOS_CONSTRUCT_BASIS F                                                          
PDOS_LOWDIN T                                                                   
PDOS_ORTH_ATOM_BLOCKS F                                                         
PDOS_LCAO_OPTIMIZE F                                                            
pdos_optados_output T                                                           
homo_plot 0                                                                     
lumo_plot 0                                                                     
homo_dens_plot -1                                                               
lumo_dens_plot -1                                                               
%BLOCK SPECIES                                                                  
C C 6 4 9.0                                                                     
%ENDBLOCK SPECIES                                                               
%BLOCK SPECIES_POT                                                              
C "~/pp/paw/c_pbe_abinit.paw"                                                   
%ENDBLOCK SPECIES_POT                                                           
%BLOCK SPECIES_ATOMIC_SET                                                       
C "SOLVE conf=2s2 2p2"                                                          
%ENDBLOCK SPECIES_ATOMIC_SET                                                    
%BLOCK LATTICE_CART                                                             
32.21  0.00  0.00                                                               
0.00 18.59  0.00                                                                
0.00  0.00 78.59                                                                
%ENDBLOCK LATTICE_CART                                                          
%BLOCK POSITIONS_ABS                                                            
C  0.00  0.00  3.93                                                             
C  0.00  0.00 19.65                                                             
C  0.00  0.00 35.37                                                             
C  0.00  0.00 51.09                                                             
C  0.00  0.00 66.80                                                             
C  0.00  4.65  3.93                                                             
C  0.00  4.65 19.65                                                             
C  0.00  4.65 35.37                                                             
C  0.00  4.65 51.09                                                             
C  0.00  4.65 66.80                                                             
C  4.03  2.32  3.93                                                             
C  4.03  2.32 19.65                                                             
C  4.03  2.32 35.37                                                             
C  4.03  2.32 51.09                                                             
C  4.03  2.32 66.80                                                             
C  8.05  0.00  3.93                                                             
C  8.05  0.00 19.65                                                             
C  8.05  0.00 35.37                                                             
C  8.05  0.00 51.09                                                             
C  8.05  0.00 66.80                                                             
C  0.00  9.30  3.93                                                             
C  0.00  9.30 19.65                                                             
C  0.00  9.30 35.37                                                             
C  0.00  9.30 51.09                                                             
C  0.00  9.30 66.80                                                             
C  4.03  6.97  3.93                                                             
C  4.03  6.97 19.65                                                             
C  4.03  6.97 35.37                                                             
C  4.03  6.97 51.09                                                             
C  4.03  6.97 66.80                                                             
C  8.05  4.65  3.93                                                             
C  8.05  4.65 19.65                                                             
C  8.05  4.65 35.37                                                             
C  8.05  4.65 51.09                                                             
C  8.05  4.65 66.80                                                             
C 12.08  2.32  3.93                                                             
C 12.08  2.32 19.65                                                             
C 12.08  2.32 35.37                                                             
C 12.08  2.32 51.09                                                             
C 12.08  2.32 66.80                                                             
C 16.10  0.00  3.93                                                             
C 16.10  0.00 19.65                                                             
C 16.10  0.00 35.37                                                             
C 16.10  0.00 51.09                                                             
C 16.10  0.00 66.80                                                             
C  0.00 13.95  3.93                                                             
C  0.00 13.95 19.65                                                             
C  0.00 13.95 35.37                                                             
C  0.00 13.95 51.09                                                             
C  0.00 13.95 66.80                                                             
C  4.03 11.62  3.93                                                             
C  4.03 11.62 19.65                                                             
C  4.03 11.62 35.37                                                             
C  4.03 11.62 51.09                                                             
C  4.03 11.62 66.80                                                             
C  8.05  9.30  3.93                                                             
C  8.05  9.30 19.65                                                             
C  8.05  9.30 35.37                                                             
C  8.05  9.30 51.09                                                             
C  8.05  9.30 66.80                                                             
C 12.08  6.97  3.93                                                             
C 12.08  6.97 19.65                                                             
C 12.08  6.97 35.37                                                             
C 12.08  6.97 51.09                                                             
C 12.08  6.97 66.80                                                             
C 16.10  4.65  3.93                                                             
C 16.10  4.65 19.65                                                             
C 16.10  4.65 35.37                                                             
C 16.10  4.65 51.09                                                             
C 16.10  4.65 66.80                                                             
C 20.13  2.32  3.93                                                             
C 20.13  2.32 19.65                                                             
C 20.13  2.32 35.37                                                             
C 20.13  2.32 51.09                                                             
C 20.13  2.32 66.80                                                             
C 24.16  0.00  3.93                                                             
C 24.16  0.00 19.65                                                             
C 24.16  0.00 35.37                                                             
C 24.16  0.00 51.09                                                             
C 24.16  0.00 66.80                                                             
C  4.03 16.27  3.93                                                             
C  4.03 16.27 19.65                                                             
C  4.03 16.27 35.37                                                             
C  4.03 16.27 51.09                                                             
C  4.03 16.27 66.80                                                             
C  8.05 13.95  3.93                                                             
C  8.05 13.95 19.65                                                             
C  8.05 13.95 35.37                                                             
C  8.05 13.95 51.09                                                             
C  8.05 13.95 66.80                                                             
C 12.08 11.62  3.93                                                             
C 12.08 11.62 19.65                                                             
C 12.08 11.62 35.37                                                             
C 12.08 11.62 51.09                                                             
C 12.08 11.62 66.80                                                             
C 16.10  9.30  3.93                                                             
C 16.10  9.30 19.65                                                             
C 16.10  9.30 35.37                                                             
C 16.10  9.30 51.09                                                             
C 16.10  9.30 66.80                                                             
C 20.13  6.97  3.93                                                             
C 20.13  6.97 19.65                                                             
C 20.13  6.97 35.37                                                             
C 20.13  6.97 51.09                                                             
C 20.13  6.97 66.80                                                             
C 24.16  4.65  3.93                                                             
C 24.16  4.65 19.65                                                             
C 24.16  4.65 35.37                                                             
C 24.16  4.65 51.09                                                             
C 24.16  4.65 66.80                                                             
C 28.18  2.32  3.93                                                             
C 28.18  2.32 19.65                                                             
C 28.18  2.32 35.37                                                             
C 28.18  2.32 51.09                                                             
C 28.18  2.32 66.80                                                             
C 12.08 16.27  3.93                                                             
C 12.08 16.27 19.65                                                             
C 12.08 16.27 35.37                                                             
C 12.08 16.27 51.09                                                             
C 12.08 16.27 66.80                                                             
C 16.10 13.95  3.93                                                             
C 16.10 13.95 19.65                                                             
C 16.10 13.95 35.37                                                             
C 16.10 13.95 51.09                                                             
C 16.10 13.95 66.80                                                             
C 20.13 11.62  3.93                                                             
C 20.13 11.62 19.65                                                             
C 20.13 11.62 35.37                                                             
C 20.13 11.62 51.09                                                             
C 20.13 11.62 66.80                                                             
C 24.16  9.30  3.93                                                             
C 24.16  9.30 19.65                                                             
C 24.16  9.30 35.37                                                             
C 24.16  9.30 51.09                                                             
C 24.16  9.30 66.80                                                             
C 28.18  6.97  3.93                                                             
C 28.18  6.97 19.65                                                             
C 28.18  6.97 35.37                                                             
C 28.18  6.97 51.09                                                             
C 28.18  6.97 66.80                                                             
C 20.13 16.27  3.93                                                             
C 20.13 16.27 19.65                                                             
C 20.13 16.27 35.37                                                             
C 20.13 16.27 51.09                                                             
C 20.13 16.27 66.80                                                             
C 24.16 13.95  3.93                                                             
C 24.16 13.95 19.65                                                             
C 24.16 13.95 35.37                                                             
C 24.16 13.95 51.09                                                             
C 24.16 13.95 66.80                                                             
C 28.18 11.62  3.93                                                             
C 28.18 11.62 19.65                                                             
C 28.18 11.62 35.37                                                             
C 28.18 11.62 51.09                                                             
C 28.18 11.62 66.80                                                             
C 28.18 16.27  3.93                                                             
C 28.18 16.27 19.65                                                             
C 28.18 16.27 35.37                                                             
C 28.18 16.27 51.09                                                             
C 28.18 16.27 66.80                                                             
C  0.00  0.00 11.79                                                             
C  0.00  0.00 27.51                                                             
C  0.00  0.00 43.23                                                             
C  0.00  0.00 58.94                                                             
C  0.00  0.00 74.66                                                             
C  0.00  4.65 11.79                                                             
C  0.00  4.65 27.51                                                             
C  0.00  4.65 43.23                                                             
C  0.00  4.65 58.94                                                             
C  0.00  4.65 74.66                                                             
C  4.03  2.32 11.79                                                             
C  4.03  2.32 27.51                                                             
C  4.03  2.32 43.23                                                             
C  4.03  2.32 58.94                                                             
C  4.03  2.32 74.66                                                             
C  8.05  0.00 11.79                                                             
C  8.05  0.00 27.51                                                             
C  8.05  0.00 43.23                                                             
C  8.05  0.00 58.94                                                             
C  8.05  0.00 74.66                                                             
C  0.00  9.30 11.79                                                             
C  0.00  9.30 27.51                                                             
C  0.00  9.30 43.23                                                             
C  0.00  9.30 58.94                                                             
C  0.00  9.30 74.66                                                             
C  4.03  6.97 11.79                                                             
C  4.03  6.97 27.51                                                             
C  4.03  6.97 43.23                                                             
C  4.03  6.97 58.94                                                             
C  4.03  6.97 74.66                                                             
C  8.05  4.65 11.79                                                             
C  8.05  4.65 27.51                                                             
C  8.05  4.65 43.23                                                             
C  8.05  4.65 58.94                                                             
C  8.05  4.65 74.66                                                             
C 12.08  2.32 11.79                                                             
C 12.08  2.32 27.51                                                             
C 12.08  2.32 43.23                                                             
C 12.08  2.32 58.94                                                             
C 12.08  2.32 74.66                                                             
C 16.10  0.00 11.79                                                             
C 16.10  0.00 27.51                                                             
C 16.10  0.00 43.23                                                             
C 16.10  0.00 58.94                                                             
C 16.10  0.00 74.66                                                             
C  0.00 13.95 11.79                                                             
C  0.00 13.95 27.51                                                             
C  0.00 13.95 43.23                                                             
C  0.00 13.95 58.94                                                             
C  0.00 13.95 74.66                                                             
C  4.03 11.62 11.79                                                             
C  4.03 11.62 27.51                                                             
C  4.03 11.62 43.23                                                             
C  4.03 11.62 58.94                                                             
C  4.03 11.62 74.66                                                             
C  8.05  9.30 11.79                                                             
C  8.05  9.30 27.51                                                             
C  8.05  9.30 43.23                                                             
C  8.05  9.30 58.94                                                             
C  8.05  9.30 74.66                                                             
C 12.08  6.97 11.79                                                             
C 12.08  6.97 27.51                                                             
C 12.08  6.97 43.23                                                             
C 12.08  6.97 58.94                                                             
C 12.08  6.97 74.66                                                             
C 16.10  4.65 11.79                                                             
C 16.10  4.65 27.51                                                             
C 16.10  4.65 43.23                                                             
C 16.10  4.65 58.94                                                             
C 16.10  4.65 74.66                                                             
C 20.13  2.32 11.79                                                             
C 20.13  2.32 27.51                                                             
C 20.13  2.32 43.23                                                             
C 20.13  2.32 58.94                                                             
C 20.13  2.32 74.66                                                             
C 24.16  0.00 11.79                                                             
C 24.16  0.00 27.51                                                             
C 24.16  0.00 43.23                                                             
C 24.16  0.00 58.94                                                             
C 24.16  0.00 74.66                                                             
C  4.03 16.27 11.79                                                             
C  4.03 16.27 27.51                                                             
C  4.03 16.27 43.23                                                             
C  4.03 16.27 58.94                                                             
C  4.03 16.27 74.66                                                             
C  8.05 13.95 11.79                                                             
C  8.05 13.95 27.51                                                             
C  8.05 13.95 43.23                                                             
C  8.05 13.95 58.94                                                             
C  8.05 13.95 74.66                                                             
C 12.08 11.62 11.79                                                             
C 12.08 11.62 27.51                                                             
C 12.08 11.62 43.23                                                             
C 12.08 11.62 58.94                                                             
C 12.08 11.62 74.66                                                             
C 16.10  9.30 11.79                                                             
C 16.10  9.30 27.51                                                             
C 16.10  9.30 43.23                                                             
C 16.10  9.30 58.94                                                             
C 16.10  9.30 74.66                                                             
C 20.13  6.97 11.79                                                             
C 20.13  6.97 27.51                                                             
C 20.13  6.97 43.23                                                             
C 20.13  6.97 58.94                                                             
C 20.13  6.97 74.66                                                             
C 24.16  4.65 11.79                                                             
C 24.16  4.65 27.51                                                             
C 24.16  4.65 43.23                                                             
C 24.16  4.65 58.94                                                             
C 24.16  4.65 74.66                                                             
C 28.18  2.32 11.79                                                             
C 28.18  2.32 27.51                                                             
C 28.18  2.32 43.23                                                             
C 28.18  2.32 58.94                                                             
C 28.18  2.32 74.66                                                             
C 12.08 16.27 11.79                                                             
C 12.08 16.27 27.51                                                             
C 12.08 16.27 43.23                                                             
C 12.08 16.27 58.94                                                             
C 12.08 16.27 74.66                                                             
C 16.10 13.95 11.79                                                             
C 16.10 13.95 27.51                                                             
C 16.10 13.95 43.23                                                             
C 16.10 13.95 58.94                                                             
C 16.10 13.95 74.66                                                             
C 20.13 11.62 11.79                                                             
C 20.13 11.62 27.51                                                             
C 20.13 11.62 43.23                                                             
C 20.13 11.62 58.94                                                             
C 20.13 11.62 74.66                                                             
C 24.16  9.30 11.79                                                             
C 24.16  9.30 27.51                                                             
C 24.16  9.30 43.23                                                             
C 24.16  9.30 58.94                                                             
C 24.16  9.30 74.66                                                             
C 28.18  6.97 11.79                                                             
C 28.18  6.97 27.51                                                             
C 28.18  6.97 43.23                                                             
C 28.18  6.97 58.94                                                             
C 28.18  6.97 74.66                                                             
C 20.13 16.27 11.79                                                             
C 20.13 16.27 27.51                                                             
C 20.13 16.27 43.23                                                             
C 20.13 16.27 58.94                                                             
C 20.13 16.27 74.66                                                             
C 24.16 13.95 11.79                                                             
C 24.16 13.95 27.51                                                             
C 24.16 13.95 43.23                                                             
C 24.16 13.95 58.94                                                             
C 24.16 13.95 74.66                                                             
C 28.18 11.62 11.79                                                             
C 28.18 11.62 27.51                                                             
C 28.18 11.62 43.23                                                             
C 28.18 11.62 58.94                                                             
C 28.18 11.62 74.66                                                             
C 28.18 16.27 11.79                                                             
C 28.18 16.27 27.51                                                             
C 28.18 16.27 43.23                                                             
C 28.18 16.27 58.94                                                             
C 28.18 16.27 74.66                                                             
C  1.34  2.32  3.93                                                             
C  1.34  2.32 19.65                                                             
C  1.34  2.32 35.37                                                             
C  1.34  2.32 51.09                                                             
C  1.34  2.32 66.80                                                             
C  5.37  0.00  3.93                                                             
C  5.37  0.00 19.65                                                             
C  5.37  0.00 35.37                                                             
C  5.37  0.00 51.09                                                             
C  5.37  0.00 66.80                                                             
C  1.34  6.97  3.93                                                             
C  1.34  6.97 19.65                                                             
C  1.34  6.97 35.37                                                             
C  1.34  6.97 51.09                                                             
C  1.34  6.97 66.80                                                             
C  5.37  4.65  3.93                                                             
C  5.37  4.65 19.65                                                             
C  5.37  4.65 35.37                                                             
C  5.37  4.65 51.09                                                             
C  5.37  4.65 66.80                                                             
C  9.39  2.32  3.93                                                             
C  9.39  2.32 19.65                                                             
C  9.39  2.32 35.37                                                             
C  9.39  2.32 51.09                                                             
C  9.39  2.32 66.80                                                             
C 13.42  0.00  3.93                                                             
C 13.42  0.00 19.65                                                             
C 13.42  0.00 35.37                                                             
C 13.42  0.00 51.09                                                             
C 13.42  0.00 66.80                                                             
C  1.34 11.62  3.93                                                             
C  1.34 11.62 19.65                                                             
C  1.34 11.62 35.37                                                             
C  1.34 11.62 51.09                                                             
C  1.34 11.62 66.80                                                             
C  5.37  9.30  3.93                                                             
C  5.37  9.30 19.65                                                             
C  5.37  9.30 35.37                                                             
C  5.37  9.30 51.09                                                             
C  5.37  9.30 66.80                                                             
C  9.39  6.97  3.93                                                             
C  9.39  6.97 19.65                                                             
C  9.39  6.97 35.37                                                             
C  9.39  6.97 51.09                                                             
C  9.39  6.97 66.80                                                             
C 13.42  4.65  3.93                                                             
C 13.42  4.65 19.65                                                             
C 13.42  4.65 35.37                                                             
C 13.42  4.65 51.09                                                             
C 13.42  4.65 66.80                                                             
C 17.45  2.32  3.93                                                             
C 17.45  2.32 19.65                                                             
C 17.45  2.32 35.37                                                             
C 17.45  2.32 51.09                                                             
C 17.45  2.32 66.80                                                             
C 21.47  0.00  3.93                                                             
C 21.47  0.00 19.65                                                             
C 21.47  0.00 35.37                                                             
C 21.47  0.00 51.09                                                             
C 21.47  0.00 66.80                                                             
C  1.34 16.27  3.93                                                             
C  1.34 16.27 19.65                                                             
C  1.34 16.27 35.37                                                             
C  1.34 16.27 51.09                                                             
C  1.34 16.27 66.80                                                             
C  5.37 13.95  3.93                                                             
C  5.37 13.95 19.65                                                             
C  5.37 13.95 35.37                                                             
C  5.37 13.95 51.09                                                             
C  5.37 13.95 66.80                                                             
C  9.39 11.62  3.93                                                             
C  9.39 11.62 19.65                                                             
C  9.39 11.62 35.37                                                             
C  9.39 11.62 51.09                                                             
C  9.39 11.62 66.80                                                             
C 13.42  9.30  3.93                                                             
C 13.42  9.30 19.65                                                             
C 13.42  9.30 35.37                                                             
C 13.42  9.30 51.09                                                             
C 13.42  9.30 66.80                                                             
C 17.45  6.97  3.93                                                             
C 17.45  6.97 19.65                                                             
C 17.45  6.97 35.37                                                             
C 17.45  6.97 51.09                                                             
C 17.45  6.97 66.80                                                             
C 21.47  4.65  3.93                                                             
C 21.47  4.65 19.65                                                             
C 21.47  4.65 35.37                                                             
C 21.47  4.65 51.09                                                             
C 21.47  4.65 66.80                                                             
C 25.50  2.32  3.93                                                             
C 25.50  2.32 19.65                                                             
C 25.50  2.32 35.37                                                             
C 25.50  2.32 51.09                                                             
C 25.50  2.32 66.80                                                             
C 29.52  0.00  3.93                                                             
C 29.52  0.00 19.65                                                             
C 29.52  0.00 35.37                                                             
C 29.52  0.00 51.09                                                             
C 29.52  0.00 66.80                                                             
C  9.39 16.27  3.93                                                             
C  9.39 16.27 19.65                                                             
C  9.39 16.27 35.37                                                             
C  9.39 16.27 51.09                                                             
C  9.39 16.27 66.80                                                             
C 13.42 13.95  3.93                                                             
C 13.42 13.95 19.65                                                             
C 13.42 13.95 35.37                                                             
C 13.42 13.95 51.09                                                             
C 13.42 13.95 66.80                                                             
C 17.45 11.62  3.93                                                             
C 17.45 11.62 19.65                                                             
C 17.45 11.62 35.37                                                             
C 17.45 11.62 51.09                                                             
C 17.45 11.62 66.80                                                             
C 21.47  9.30  3.93                                                             
C 21.47  9.30 19.65                                                             
C 21.47  9.30 35.37                                                             
C 21.47  9.30 51.09                                                             
C 21.47  9.30 66.80                                                             
C 25.50  6.97  3.93                                                             
C 25.50  6.97 19.65                                                             
C 25.50  6.97 35.37                                                             
C 25.50  6.97 51.09                                                             
C 25.50  6.97 66.80                                                             
C 29.52  4.65  3.93                                                             
C 29.52  4.65 19.65                                                             
C 29.52  4.65 35.37                                                             
C 29.52  4.65 51.09                                                             
C 29.52  4.65 66.80                                                             
C 17.45 16.27  3.93                                                             
C 17.45 16.27 19.65                                                             
C 17.45 16.27 35.37                                                             
C 17.45 16.27 51.09                                                             
C 17.45 16.27 66.80                                                             
C 21.47 13.95  3.93                                                             
C 21.47 13.95 19.65                                                             
C 21.47 13.95 35.37                                                             
C 21.47 13.95 51.09                                                             
C 21.47 13.95 66.80                                                             
C 25.50 11.62  3.93                                                             
C 25.50 11.62 19.65                                                             
C 25.50 11.62 35.37                                                             
C 25.50 11.62 51.09                                                             
C 25.50 11.62 66.80                                                             
C 29.52  9.30  3.93                                                             
C 29.52  9.30 19.65                                                             
C 29.52  9.30 35.37                                                             
C 29.52  9.30 51.09                                                             
C 29.52  9.30 66.80                                                             
C 25.50 16.27  3.93                                                             
C 25.50 16.27 19.65                                                             
C 25.50 16.27 35.37                                                             
C 25.50 16.27 51.09                                                             
C 25.50 16.27 66.80                                                             
C 29.52 13.95  3.93                                                             
C 29.52 13.95 19.65                                                             
C 29.52 13.95 35.37                                                             
C 29.52 13.95 51.09                                                             
C 29.52 13.95 66.80                                                             
C  2.68  0.00 11.79                                                             
C  2.68  0.00 27.51                                                             
C  2.68  0.00 43.23                                                             
C  2.68  0.00 58.94                                                             
C  2.68  0.00 74.66                                                             
C  2.68  4.65 11.79                                                             
C  2.68  4.65 27.51                                                             
C  2.68  4.65 43.23                                                             
C  2.68  4.65 58.94                                                             
C  2.68  4.65 74.66                                                             
C  6.71  2.32 11.79                                                             
C  6.71  2.32 27.51                                                             
C  6.71  2.32 43.23                                                             
C  6.71  2.32 58.94                                                             
C  6.71  2.32 74.66                                                             
C 10.74  0.00 11.79                                                             
C 10.74  0.00 27.51                                                             
C 10.74  0.00 43.23                                                             
C 10.74  0.00 58.94                                                             
C 10.74  0.00 74.66                                                             
C  2.68  9.30 11.79                                                             
C  2.68  9.30 27.51                                                             
C  2.68  9.30 43.23                                                             
C  2.68  9.30 58.94                                                             
C  2.68  9.30 74.66                                                             
C  6.71  6.97 11.79                                                             
C  6.71  6.97 27.51                                                             
C  6.71  6.97 43.23                                                             
C  6.71  6.97 58.94                                                             
C  6.71  6.97 74.66                                                             
C 10.74  4.65 11.79                                                             
C 10.74  4.65 27.51                                                             
C 10.74  4.65 43.23                                                             
C 10.74  4.65 58.94                                                             
C 10.74  4.65 74.66                                                             
C 14.76  2.32 11.79                                                             
C 14.76  2.32 27.51                                                             
C 14.76  2.32 43.23                                                             
C 14.76  2.32 58.94                                                             
C 14.76  2.32 74.66                                                             
C 18.79  0.00 11.79                                                             
C 18.79  0.00 27.51                                                             
C 18.79  0.00 43.23                                                             
C 18.79  0.00 58.94                                                             
C 18.79  0.00 74.66                                                             
C  2.68 13.95 11.79                                                             
C  2.68 13.95 27.51                                                             
C  2.68 13.95 43.23                                                             
C  2.68 13.95 58.94                                                             
C  2.68 13.95 74.66                                                             
C  6.71 11.62 11.79                                                             
C  6.71 11.62 27.51                                                             
C  6.71 11.62 43.23                                                             
C  6.71 11.62 58.94                                                             
C  6.71 11.62 74.66                                                             
C 10.74  9.30 11.79                                                             
C 10.74  9.30 27.51                                                             
C 10.74  9.30 43.23                                                             
C 10.74  9.30 58.94                                                             
C 10.74  9.30 74.66                                                             
C 14.76  6.97 11.79                                                             
C 14.76  6.97 27.51                                                             
C 14.76  6.97 43.23                                                             
C 14.76  6.97 58.94                                                             
C 14.76  6.97 74.66                                                             
C 18.79  4.65 11.79                                                             
C 18.79  4.65 27.51                                                             
C 18.79  4.65 43.23                                                             
C 18.79  4.65 58.94                                                             
C 18.79  4.65 74.66                                                             
C 22.81  2.32 11.79                                                             
C 22.81  2.32 27.51                                                             
C 22.81  2.32 43.23                                                             
C 22.81  2.32 58.94                                                             
C 22.81  2.32 74.66                                                             
C 26.84  0.00 11.79                                                             
C 26.84  0.00 27.51                                                             
C 26.84  0.00 43.23                                                             
C 26.84  0.00 58.94                                                             
C 26.84  0.00 74.66                                                             
C  6.71 16.27 11.79                                                             
C  6.71 16.27 27.51                                                             
C  6.71 16.27 43.23                                                             
C  6.71 16.27 58.94                                                             
C  6.71 16.27 74.66                                                             
C 10.74 13.95 11.79                                                             
C 10.74 13.95 27.51                                                             
C 10.74 13.95 43.23                                                             
C 10.74 13.95 58.94                                                             
C 10.74 13.95 74.66                                                             
C 14.76 11.62 11.79                                                             
C 14.76 11.62 27.51                                                             
C 14.76 11.62 43.23                                                             
C 14.76 11.62 58.94                                                             
C 14.76 11.62 74.66                                                             
C 18.79  9.30 11.79                                                             
C 18.79  9.30 27.51                                                             
C 18.79  9.30 43.23                                                             
C 18.79  9.30 58.94                                                             
C 18.79  9.30 74.66                                                             
C 22.81  6.97 11.79                                                             
C 22.81  6.97 27.51                                                             
C 22.81  6.97 43.23                                                             
C 22.81  6.97 58.94                                                             
C 22.81  6.97 74.66                                                             
C 26.84  4.65 11.79                                                             
C 26.84  4.65 27.51                                                             
C 26.84  4.65 43.23                                                             
C 26.84  4.65 58.94                                                             
C 26.84  4.65 74.66                                                             
C 30.86  2.32 11.79                                                             
C 30.86  2.32 27.51                                                             
C 30.86  2.32 43.23                                                             
C 30.86  2.32 58.94                                                             
C 30.86  2.32 74.66                                                             
C 14.76 16.27 11.79                                                             
C 14.76 16.27 27.51                                                             
C 14.76 16.27 43.23                                                             
C 14.76 16.27 58.94                                                             
C 14.76 16.27 74.66                                                             
C 18.79 13.95 11.79                                                             
C 18.79 13.95 27.51                                                             
C 18.79 13.95 43.23                                                             
C 18.79 13.95 58.94                                                             
C 18.79 13.95 74.66                                                             
C 22.81 11.62 11.79                                                             
C 22.81 11.62 27.51                                                             
C 22.81 11.62 43.23                                                             
C 22.81 11.62 58.94                                                             
C 22.81 11.62 74.66                                                             
C 26.84  9.30 11.79                                                             
C 26.84  9.30 27.51                                                             
C 26.84  9.30 43.23                                                             
C 26.84  9.30 58.94                                                             
C 26.84  9.30 74.66                                                             
C 30.86  6.97 11.79                                                             
C 30.86  6.97 27.51                                                             
C 30.86  6.97 43.23                                                             
C 30.86  6.97 58.94                                                             
C 30.86  6.97 74.66                                                             
C 22.81 16.27 11.79                                                             
C 22.81 16.27 27.51                                                             
C 22.81 16.27 43.23                                                             
C 22.81 16.27 58.94                                                             
C 22.81 16.27 74.66                                                             
C 26.84 13.95 11.79                                                             
C 26.84 13.95 27.51                                                             
C 26.84 13.95 43.23                                                             
C 26.84 13.95 58.94                                                             
C 26.84 13.95 74.66                                                             
C 30.86 11.62 11.79                                                             
C 30.86 11.62 27.51                                                             
C 30.86 11.62 43.23                                                             
C 30.86 11.62 58.94                                                             
C 30.86 11.62 74.66                                                             
C 30.86 16.27 11.79                                                             
C 30.86 16.27 27.51                                                             
C 30.86 16.27 43.23                                                             
C 30.86 16.27 58.94                                                             
C 30.86 16.27 74.66                                                             
%ENDBLOCK POSITIONS_ABS                                                         

--------------------------------------------------------------------------------
-------------------------------- END INPUT FILE --------------------------------
--------------------------------------------------------------------------------


 
<<<<<<<<<<<<<<<<<<<<<<<<<<<<<<<<< Full system >>>>>>>>>>>>>>>>>>>>>>>>>>>>>>>>>>
<<<<<<<<<<<<<<<<<<<<<<<<<<< PAW Dataset information >>>>>>>>>>>>>>>>>>>>>>>>>>>
File: ~/pp/paw/c_pbe_abinit.paw; rc = 1.25 bohr; shape type =  3; rshape = 1.25 bohr;
  Atomic number:  6;  ionic charge:  4.000000
    Partial Wave 1: l = 0
    Partial Wave 2: l = 0
    Partial Wave 3: l = 1
    Partial Wave 4: l = 1
  Core charge supplied for Nonlinear Core Corrections
<<<<<<<<<<<<<<<<<<<<<<<<<<<<<<<<<<<<<<< >>>>>>>>>>>>>>>>>>>>>>>>>>>>>>>>>>>>>>>

-------------------------- Atom counting information ---------------------------
Symbol    Natoms    Nngwfs    Nprojs
  C        640      2560      5120
.......   ......    ......    ......
Totals:    640      2560      5120
--------------------------------------------------------------------------------

=============================== PSINC grid sizes ===============================
                      Simulation cell:   63 x  35 x 155
                              FFT-box:   63 x  35 x 117
                                  PPD:    7 x   5 x   1
Grid space d1=  0.511269841270a0 (KE cutoff=  29.06054Eh = 790.77748eV)
Grid space d2=  0.531142857143a0 (KE cutoff=  26.92659Eh = 732.70972eV)
Grid space d3=  0.507032258065a0 (KE cutoff=  29.54832Eh = 804.05075eV)
================================================================================
  
WARNING in cell_grid_distribute:
Average of less than one 23-slab per node, so workload cannot be
equally balanced between nodes.

********************* Fourier parallelisation information **********************
       Coarse grid (whole simulation cell) dimensions:     63    35   155
          Real-space ('12') slabs/node (min max mean):      3     4     3
         Recip-space ('23') slabs/node (min max mean):      0     1     0
********************************************************************************

********************* Fourier parallelisation information **********************
       Double grid (whole simulation cell) dimensions:    126    70   310
          Real-space ('12') slabs/node (min max mean):      7     8     7
         Recip-space ('23') slabs/node (min max mean):      1     2     1
********************************************************************************

Atom SCF Calculation for C  : Z (AE atom) =   6 : Z (PS atom) =   4
Config String: 2s2 2p2
Orbitals (num,occ):  2     2.00 2.00
Orbitals   (num,l):  2        0    1
Real-space Grid (nr,dr,rmax): 1293    0.0069659443    9.0000000000
Spherical Bessel Basis (nsws,lmax,cutoff):   37    2  161.4736382572
Confining potential (l,width,scale):  0    3.0000000000  100.0000000000
Confining potential (l,width,scale):  1    3.0000000000  100.0000000000
  1         -5.4691149987   -1.3647045835    4.5135257941   -1.6713568800
  2         -5.5214542834   -1.4154291535    4.4635199061   -1.6585170582
  3         -5.5221055910   -1.4439161209    4.4342087028   -1.6520281659
  4         -5.5287901521   -1.4522301802    4.4259176063   -1.6507873939
  5         -5.5308251003   -1.4557840400    4.4224142384   -1.6502632738
  6         -5.5317252094   -1.4571386008    4.4211068249   -1.6500892907
  7         -5.5320765973   -1.4576738924    4.4205997642   -1.6500256779
  8         -5.5322192721   -1.4578833190    4.4204056023   -1.6500032912
  9         -5.5322765240   -1.4579657561    4.4203308649   -1.6499954152
 10         -5.5322995843   -1.4579982639    4.4203020904   -1.6499927055
 11         -5.5323088576   -1.4580111317    4.4202909828   -1.6499917962
 12         -5.5323125859   -1.4580162439    4.4202866844   -1.6499915030
 13         -5.5323140836   -1.4580182832    4.4202850159   -1.6499914143
 14         -5.5323146847   -1.4580191002    4.4202843659   -1.6499913905
 15         -5.5323149258   -1.4580194290    4.4202841117   -1.6499913858
 16         -5.5323150224   -1.4580195619    4.4202840119   -1.6499913859
Atom SCF converged after  16 iterations to a total energy of     -5.53231502

Determining parallel strategy ...
... using space-filling curve
... NGWF load balancing: max     64;  min     64;  average     64
... Projector load balancing: max    128;  min    128;  average    128
... done
Calculating Ewald energy ...
              Ewald: real-space energy =    9527.449880
        Ewald: reciprocal-space energy =       1.255458
         Ewald: (sum_charge)**2 Energy =   10531.998999
         Ewald: (sum_charge**2) Energy =     832.627629
                          Ewald Energy =   -1835.921291
Basis initialisation ...... NGWF spheres initialised
... Projector spheres initialised
... NGWF tight boxes initialised
... Projector tight boxes initialised
... Tight-boxes gathered
... NGWF basis size (local,global):     692340  27886592
... PAW projector initialisation
... done

============================= Charge Augmentation ==============================
                           Aug box size:   11 x  11 x  11
================================================================================

========================== Sparse matrix information ===========================
                        Overlap matrix filling:  35.78%
                        Density kernel filling: 100.00%
              NGWF-Proj overlap matrix filling:   9.38%
                    Aug Overlap matrix filling:  39.69%
                    Hamiltonian matrix filling:  39.69%
                  NGWF diagonal matrix filling:   0.16%
                             KS matrix filling: 100.00% 
                           KSKS matrix filling: 100.00% 
================================================================================

Sparse matrix initialisation ... done
NGWF initialisation ...... done
============ Calculation of NGWF S^-1 using Hotelling algorithm ================ 
         Iteration  |  Frobenius norm and Maximum abs value    (of I-S*S_n^-1)   
               1       0.48828447E+02     0.97288919E+00
               2       0.47453731E+02     0.94770551E+00
               3       0.45449339E+02     0.90232101E+00
               4       0.42919110E+02     0.82722204E+00
               5       0.39927034E+02     0.72037893E+00
               6       0.36521528E+02     0.66711103E+00
               7       0.33063517E+02     0.62148321E+00
               8       0.29718270E+02     0.58181068E+00
               9       0.25956482E+02     0.53330909E+00
              10       0.21096776E+02     0.45486413E+00
              11       0.14876286E+02     0.33435540E+00
              12       0.81215675E+01     0.18606308E+00
              13       0.28120617E+01     0.62291306E-01
              14       0.40222912E+00     0.81288690E-02
              15       0.96862979E-02     0.17014378E-03
              16       0.72962832E-05     0.95326454E-07
              17       0.63542049E-11     0.51625371E-13
================================================================================
Calculating core density ...
================================= Core Density =================================
               Core den box size:   21 x  21 x  21
================================================================================
 ... done
Up spin density kernel initialisation ...... done

Writing density kernel to file "4.158936_GO_manual_4x64graphite.dkn" ... done

>>> Optimising kernel for current NGWFs:

--------------------------- Ensemble-DFT optimisation --------------------------
Running ScaLAPACK on   40 processor(s).

--------------------------------------------------------------------------------
  Iter                              Commutator    Free_energy(A=E-TS)     DeltaA
#    0                          0.000050645890   -3678.70943300341150  -3.68E+03

Step                       =       0.381966011250
Energy                     =   -3678.709402761625
Entropy (-TS)              =      -0.000030242007
Free energy (A=E-TS)       =   -3678.709433003412
Est. 0K Energy 0.5*(E+A)   =   -3678.709417882518
Residual Non-orthogonality =       0.000000000000
Residual N_electrons       =       0.000000000220

Spin          Integrated_Ne            Fermi_level     Delta_Fermi_level
   1      2559.999999998008         0.110477018077              1.10E-01

                           Spin 1          
     Orb      H-eigenvalues     Occupancies
       1 |    -0.6031506942    1.0000000000 | 
                          ------
    1276 |     0.0745590241    0.9999881362 | 
    1277 |     0.0748228389    0.9999871055 | 
    1278 |     0.0751777534    0.9999855763 | 
    1279 |     0.0751802189    0.9999855651 | 
    1280 |     0.0754456592    0.9999843031 | 
                 - Gap at zero temperature -
    1281 |     0.1466632169    0.0000109004 | 
    1282 |     0.1466651440    0.0000108938 | 
    1283 |     0.1466681963    0.0000108833 | 
    1284 |     0.1466820328    0.0000108358 | 
    1285 |     0.1466847260    0.0000108266 | 
                          ------
    2560 |     0.9303408828    0.0000000000 | 

                       |  Abs_value |  Threshold | Converged
     Delta_Free_energy |   3.68E+03 |   1.00E-06 |        No
     Delta_Energy      |   3.68E+03 |   1.00E-04 |        No
     Delta_Entropy     |   3.02E-05 |   1.00E-04 |       Yes
     Commutator        |   5.06E-05 |   1.00E-05 |        No
     Delta_Fermi_level |   1.10E-01 |   1.00E-03 |        No

  Line search of the free energy minimum:
  Step_type        Step             Free_energy   Predicted_free_energy
.   Initial    0.000000    -3678.70943300341150
.    Trial1    0.381966    -3678.71230399685919
.    Trial2    0.618034    -3678.71317782818869
. Quadratic    0.799852    -3678.71338556550427    -3678.71338187377660

--------------------------------------------------------------------------------
  Iter                              Commutator    Free_energy(A=E-TS)     DeltaA
#    1                          0.000022703458   -3678.71338556550427  -3.95E-03

Step                       =       0.799851944687
Energy                     =   -3678.713355775197
Entropy (-TS)              =      -0.000029790287
Free energy (A=E-TS)       =   -3678.713385565504
Est. 0K Energy 0.5*(E+A)   =   -3678.713370670351
Residual Non-orthogonality =       0.000000000000
Residual N_electrons       =      -0.000000000021

Spin          Integrated_Ne            Fermi_level     Delta_Fermi_level
   1      2560.000000000197         0.106890638902             -3.59E-03

                           Spin 1          
     Orb      H-eigenvalues     Occupancies
       1 |    -0.6108049418    1.0000000000 | 
                          ------
    1276 |     0.0709333034    0.9999882827 | 
    1277 |     0.0711675601    0.9999873830 | 
    1278 |     0.0713469258    0.9999866478 | 
    1279 |     0.0713501449    0.9999866342 | 
    1280 |     0.0715856101    0.9999856026 | 
                 - Gap at zero temperature -
    1281 |     0.1430230397    0.0000110872 | 
    1282 |     0.1430357452    0.0000110428 | 
    1283 |     0.1430419841    0.0000110211 | 
    1284 |     0.1430598819    0.0000109589 | 
    1285 |     0.1430663281    0.0000109367 | 
                          ------
    2560 |     0.9231844689    0.0000000000 | 

                       |  Abs_value |  Threshold | Converged
     Delta_Free_energy |   3.95E-03 |   1.00E-06 |        No
     Delta_Energy      |   3.95E-03 |   1.00E-04 |        No
     Delta_Entropy     |   4.52E-07 |   1.00E-04 |       Yes
     Commutator        |   2.27E-05 |   1.00E-05 |        No
     Delta_Fermi_level |   3.59E-03 |   1.00E-03 |        No

  Line search of the free energy minimum:
  Step_type        Step             Free_energy   Predicted_free_energy
.   Initial    0.000000    -3678.71338556550427
.    Trial1    0.799852    -3678.71121287625465
.    Trial2    0.305516    -3678.71386996564706
. Quadratic    0.243855    -3678.71390319106922    -3678.71390305282466

--------------------------------------------------------------------------------
  Iter                              Commutator    Free_energy(A=E-TS)     DeltaA
#    2                          0.000008933655   -3678.71390319106922  -5.18E-04

Step                       =       0.243855079592
Energy                     =   -3678.713873445834
Entropy (-TS)              =      -0.000029745146
Free energy (A=E-TS)       =   -3678.713903191069
Est. 0K Energy 0.5*(E+A)   =   -3678.713888318452
Residual Non-orthogonality =       0.000000000000
Residual N_electrons       =      -0.000000000089

Spin          Integrated_Ne            Fermi_level     Delta_Fermi_level
   1      2560.000000000834         0.106694918283             -1.96E-04

                           Spin 1          
     Orb      H-eigenvalues     Occupancies
       1 |    -0.6112574500    1.0000000000 | 
                          ------
    1276 |     0.0706803939    0.9999884924 | 
    1277 |     0.0709130584    0.9999876151 | 
    1278 |     0.0711806154    0.9999865232 | 
    1279 |     0.0711835175    0.9999865109 | 
    1280 |     0.0714175486    0.9999854763 | 
                 - Gap at zero temperature -
    1281 |     0.1428712154    0.0000109346 | 
    1282 |     0.1428834805    0.0000108923 | 
    1283 |     0.1428894237    0.0000108719 | 
    1284 |     0.1429079970    0.0000108083 | 
    1285 |     0.1429141030    0.0000107875 | 
                          ------
    2560 |     0.9227620843    0.0000000000 | 

                       |  Abs_value |  Threshold | Converged
     Delta_Free_energy |   5.18E-04 |   1.00E-06 |        No
     Delta_Energy      |   5.18E-04 |   1.00E-04 |        No
     Delta_Entropy     |   4.51E-08 |   1.00E-04 |       Yes
     Commutator        |   8.93E-06 |   1.00E-05 |       Yes
     Delta_Fermi_level |   1.96E-04 |   1.00E-03 |       Yes

  Line search of the free energy minimum:
  Step_type        Step             Free_energy   Predicted_free_energy
.   Initial    0.000000    -3678.71390319106922
.    Trial1    0.243855    -3678.71397162964877
.    Trial2    0.532677    -3678.71397866252255
. Quadratic    0.413570    -3678.71398548270736    -3678.71398548849493

--------------------------------------------------------------------------------
  Iter                              Commutator    Free_energy(A=E-TS)     DeltaA
#    3                          0.000005430926   -3678.71398548270736  -8.23E-05

Step                       =       0.413569610798
Energy                     =   -3678.713955798902
Entropy (-TS)              =      -0.000029683759
Free energy (A=E-TS)       =   -3678.713985482707
Est. 0K Energy 0.5*(E+A)   =   -3678.713970640805
Residual Non-orthogonality =       0.000000000000
Residual N_electrons       =      -0.000000000046

Spin          Integrated_Ne            Fermi_level     Delta_Fermi_level
   1      2560.000000000436         0.106441782605             -2.53E-04

                           Spin 1          
     Orb      H-eigenvalues     Occupancies
       1 |    -0.6118266086    1.0000000000 | 
                          ------
    1276 |     0.0703895627    0.9999886285 | 
    1277 |     0.0706201771    0.9999877695 | 
    1278 |     0.0709329684    0.9999864999 | 
    1279 |     0.0709355639    0.9999864888 | 
    1280 |     0.0711676229    0.9999854615 | 
                 - Gap at zero temperature -
    1281 |     0.1426448211    0.0000108426 | 
    1282 |     0.1426566931    0.0000108020 | 
    1283 |     0.1426623614    0.0000107827 | 
    1284 |     0.1426817543    0.0000107169 | 
    1285 |     0.1426875461    0.0000106973 | 
                          ------
    2560 |     0.9222489804    0.0000000000 | 

                       |  Abs_value |  Threshold | Converged
     Delta_Free_energy |   8.23E-05 |   1.00E-06 |        No
     Delta_Energy      |   8.24E-05 |   1.00E-04 |       Yes
     Delta_Entropy     |   6.14E-08 |   1.00E-04 |       Yes
     Commutator        |   5.43E-06 |   1.00E-05 |       Yes
     Delta_Fermi_level |   2.53E-04 |   1.00E-03 |       Yes

  Line search of the free energy minimum:
  Step_type        Step             Free_energy   Predicted_free_energy
.   Initial    0.000000    -3678.71398548270736
.    Trial1    0.413570    -3678.71400831916435
.    Trial2    0.637566    -3678.71397433984748
. Quadratic    0.291857    -3678.71401313030901    -3678.71401312686430

--------------------------------------------------------------------------------
  Iter                              Commutator    Free_energy(A=E-TS)     DeltaA
#    4                          0.000003412002   -3678.71401313030901  -2.76E-05

Step                       =       0.291856696513
Energy                     =   -3678.713983474399
Entropy (-TS)              =      -0.000029656109
Free energy (A=E-TS)       =   -3678.714013130309
Est. 0K Energy 0.5*(E+A)   =   -3678.713998302354
Residual Non-orthogonality =       0.000000000000
Residual N_electrons       =       0.000000000200

Spin          Integrated_Ne            Fermi_level     Delta_Fermi_level
   1      2559.999999998123         0.106338151760             -1.04E-04

                           Spin 1          
     Orb      H-eigenvalues     Occupancies
       1 |    -0.6120622719    1.0000000000 | 
[...]
 C   160 -- C   385       -0.09      5.37000
 C   159 -- C   384       -0.09      5.37000
 C   158 -- C   383       -0.09      5.37000
 C   157 -- C   382       -0.09      5.37000
 C   156 -- C   381       -0.09      5.37000
 C   155 -- C   355       -0.09      5.37000
 C   154 -- C   354       -0.09      5.37000
 C   153 -- C   353       -0.09      5.37000
 C   152 -- C   352       -0.09      5.37000
 C   151 -- C   351       -0.09      5.37000
 C   140 -- C   335       -0.09      5.37000
 C   139 -- C   334       -0.09      5.37000
 C   138 -- C   333       -0.09      5.37000
 C   137 -- C   332       -0.09      5.37000
 C   136 -- C   331       -0.09      5.37000
 C   115 -- C   325       -0.09      5.37000
 C   114 -- C   324       -0.09      5.37000
 C   113 -- C   323       -0.09      5.37000
 C   112 -- C   322       -0.09      5.37000
 C   111 -- C   321       -0.09      5.37000
 C   219 -- C   569       -0.09      5.37202
 C   218 -- C   568       -0.09      5.37202
 C   217 -- C   567       -0.09      5.37202
 C   216 -- C   566       -0.09      5.37202
 C   250 -- C   540       -0.09      5.37202
 C   249 -- C   539       -0.09      5.37202
 C   248 -- C   538       -0.09      5.37202
 C   247 -- C   537       -0.09      5.37202
 C   246 -- C   536       -0.09      5.37202
 C   220 -- C   570       -0.09      5.37202
 C   285 -- C   580       -0.09      5.37202
 C   284 -- C   579       -0.09      5.37202
 C   283 -- C   578       -0.09      5.37202
 C   282 -- C   577       -0.09      5.37202
 C   281 -- C   576       -0.09      5.37202
 C   260 -- C   605       -0.09      5.37202
 C   259 -- C   604       -0.09      5.37202
 C   258 -- C   603       -0.09      5.37202
 C   257 -- C   602       -0.09      5.37202
 C   256 -- C   601       -0.09      5.37202
 C   220 -- C   515       -0.09      5.37202
 C   219 -- C   514       -0.09      5.37202
 C   218 -- C   513       -0.09      5.37202
 C   217 -- C   512       -0.09      5.37202
 C   216 -- C   511       -0.09      5.37202
 C   195 -- C   540       -0.09      5.37202
 C   195 -- C   500       -0.09      5.37202
 C   194 -- C   539       -0.09      5.37202
 C   194 -- C   499       -0.09      5.37202
 C   193 -- C   538       -0.09      5.37202
 C   193 -- C   498       -0.09      5.37202
 C   192 -- C   537       -0.09      5.37202
 C   192 -- C   497       -0.09      5.37202
 C   191 -- C   536       -0.09      5.37202
 C   191 -- C   496       -0.09      5.37202
 C   180 -- C   515       -0.09      5.37202
 C   179 -- C   514       -0.09      5.37202
 C   178 -- C   513       -0.09      5.37202
 C   177 -- C   512       -0.09      5.37202
 C   176 -- C   511       -0.09      5.37202
 C    11 -- C   331       -0.09      5.37202
 C   205 -- C   550       -0.09      5.37202
 C   204 -- C   549       -0.09      5.37202
 C   203 -- C   548       -0.09      5.37202
 C   202 -- C   547       -0.09      5.37202
 C   201 -- C   546       -0.09      5.37202
 C    95 -- C   425       -0.09      5.37202
 C    95 -- C   365       -0.09      5.37202
 C    94 -- C   424       -0.09      5.37202
 C    94 -- C   364       -0.09      5.37202
 C    93 -- C   423       -0.09      5.37202
 C    93 -- C   363       -0.09      5.37202
 C    92 -- C   422       -0.09      5.37202
 C    92 -- C   362       -0.09      5.37202
 C    91 -- C   421       -0.09      5.37202
 C    91 -- C   361       -0.09      5.37202
 C    40 -- C   365       -0.09      5.37202
 C    39 -- C   364       -0.09      5.37202
 C    38 -- C   363       -0.09      5.37202
 C    37 -- C   362       -0.09      5.37202
 C    36 -- C   361       -0.09      5.37202
 C    15 -- C   335       -0.09      5.37202
 C    65 -- C   395       -0.09      5.37202
 C    65 -- C   345       -0.09      5.37202
 C    64 -- C   394       -0.09      5.37202
 C    64 -- C   344       -0.09      5.37202
 C    63 -- C   393       -0.09      5.37202
 C    30 -- C   355       -0.09      5.37202
 C    63 -- C   343       -0.09      5.37202
 C    62 -- C   392       -0.09      5.37202
 C    30 -- C   325       -0.09      5.37202
 C    14 -- C   334       -0.09      5.37202
 C    62 -- C   342       -0.09      5.37202
 C    61 -- C   391       -0.09      5.37202
 C    29 -- C   354       -0.09      5.37202
 C    61 -- C   341       -0.09      5.37202
 C    29 -- C   324       -0.09      5.37202
 C   260 -- C   550       -0.09      5.37202
 C   259 -- C   549       -0.09      5.37202
 C    28 -- C   353       -0.09      5.37202
 C   258 -- C   548       -0.09      5.37202
 C   257 -- C   547       -0.09      5.37202
 C   256 -- C   546       -0.09      5.37202
 C    28 -- C   323       -0.09      5.37202
 C    27 -- C   352       -0.09      5.37202
 C    13 -- C   333       -0.09      5.37202
 C    27 -- C   322       -0.09      5.37202
 C   120 -- C   395       -0.09      5.37202
 C    26 -- C   351       -0.09      5.37202
 C   119 -- C   394       -0.09      5.37202
 C   118 -- C   393       -0.09      5.37202
 C    55 -- C   335       -0.09      5.37202
 C   117 -- C   392       -0.09      5.37202
 C    26 -- C   321       -0.09      5.37202
 C   116 -- C   391       -0.09      5.37202
 C    54 -- C   334       -0.09      5.37202
 C    12 -- C   332       -0.09      5.37202
 C    53 -- C   333       -0.09      5.37202
 C   230 -- C   580       -0.09      5.37202
 C   230 -- C   525       -0.09      5.37202
 C   229 -- C   579       -0.09      5.37202
 C   229 -- C   524       -0.09      5.37202
 C   228 -- C   578       -0.09      5.37202
 C    52 -- C   332       -0.09      5.37202
 C   228 -- C   523       -0.09      5.37202
 C   227 -- C   577       -0.09      5.37202
 C   227 -- C   522       -0.09      5.37202
 C   226 -- C   576       -0.09      5.37202
 C   226 -- C   521       -0.09      5.37202
 C    51 -- C   331       -0.09      5.37202
 C    23 -- C   478       -0.09      5.37202
 C    49 -- C   469       -0.09      5.37202
 C    48 -- C   468       -0.09      5.37202
 C    47 -- C   467       -0.09      5.37202
 C    22 -- C   477       -0.09      5.37202
 C    46 -- C   466       -0.09      5.37202
 C    21 -- C   476       -0.09      5.37202
 C    85 -- C   355       -0.09      5.37202
 C    84 -- C   354       -0.09      5.37202
 C    83 -- C   353       -0.09      5.37202
 C    82 -- C   352       -0.09      5.37202
 C    81 -- C   351       -0.09      5.37202
 C    55 -- C   385       -0.09      5.37202
 C    54 -- C   384       -0.09      5.37202
 C    25 -- C   480       -0.09      5.37202
 C    53 -- C   383       -0.09      5.37202
 C    52 -- C   382       -0.09      5.37202
 C    51 -- C   381       -0.09      5.37202
 C    24 -- C   479       -0.09      5.37202
 C    50 -- C   470       -0.09      5.37202
 C    24 -- C   449       -0.09      5.37202
 C     6 -- C   416       -0.09      5.37202
 C    23 -- C   448       -0.09      5.37202
 C    22 -- C   447       -0.09      5.37202
 C    10 -- C   470       -0.09      5.37202
 C     5 -- C   450       -0.09      5.37202
 C    21 -- C   446       -0.09      5.37202
 C    10 -- C   420       -0.09      5.37202
 C     9 -- C   469       -0.09      5.37202
 C     9 -- C   419       -0.09      5.37202
 C     8 -- C   468       -0.09      5.37202
 C     4 -- C   449       -0.09      5.37202
 C   150 -- C   440       -0.09      5.37202
 C   149 -- C   439       -0.09      5.37202
 C   148 -- C   438       -0.09      5.37202
 C   147 -- C   437       -0.09      5.37202
 C     8 -- C   418       -0.09      5.37202
 C   146 -- C   436       -0.09      5.37202
 C     2 -- C   447       -0.09      5.37202
 C   135 -- C   460       -0.09      5.37202
 C     7 -- C   467       -0.09      5.37202
 C   134 -- C   459       -0.09      5.37202
 C   133 -- C   458       -0.09      5.37202
 C   132 -- C   457       -0.09      5.37202
 C   131 -- C   456       -0.09      5.37202
 C     7 -- C   417       -0.09      5.37202
 C     1 -- C   446       -0.09      5.37202
 C     6 -- C   466       -0.09      5.37202
 C    25 -- C   450       -0.09      5.37202
 C     3 -- C   448       -0.09      5.37202
 C   106 -- C   436       -0.09      5.37202
 C   106 -- C   376       -0.09      5.37202
 C    80 -- C   410       -0.09      5.37202
 C    79 -- C   409       -0.09      5.37202
 C    78 -- C   408       -0.09      5.37202
 C    77 -- C   407       -0.09      5.37202
 C    76 -- C   406       -0.09      5.37202
 C   135 -- C   410       -0.09      5.37202
 C   134 -- C   409       -0.09      5.37202
 C   133 -- C   408       -0.09      5.37202
 C   132 -- C   407       -0.09      5.37202
 C   131 -- C   406       -0.09      5.37202
 C   110 -- C   440       -0.09      5.37202
 C   110 -- C   380       -0.09      5.37202
 C   109 -- C   439       -0.09      5.37202
 C   109 -- C   379       -0.09      5.37202
 C   108 -- C   438       -0.09      5.37202
 C   108 -- C   378       -0.09      5.37202
 C   107 -- C   437       -0.09      5.37202
 C   107 -- C   377       -0.09      5.37202
 C   215 -- C   635       -0.09      5.38000
 C   214 -- C   634       -0.09      5.38000
 C   213 -- C   633       -0.09      5.38000
 C   212 -- C   632       -0.09      5.38000
 C   211 -- C   631       -0.09      5.38000
 C   190 -- C   620       -0.09      5.38000
 C   189 -- C   619       -0.09      5.38000
 C   188 -- C   618       -0.09      5.38000
 C   187 -- C   617       -0.09      5.38000
 C   186 -- C   616       -0.09      5.38000
 C   175 -- C   595       -0.09      5.38000
 C   174 -- C   594       -0.09      5.38000
 C   173 -- C   593       -0.09      5.38000
 C   172 -- C   592       -0.09      5.38000
 C   171 -- C   591       -0.09      5.38000
 C   245 -- C   640       -0.09      5.38000
 C   244 -- C   639       -0.09      5.38000
 C   243 -- C   638       -0.09      5.38000
 C   242 -- C   637       -0.09      5.38000
 C   241 -- C   636       -0.09      5.38000
==================================================


=================== Orbital energy and occupancy information ===================

      Total number of orbitals:    2560
        Occupancy sum (kernel):    1280.000000001
   Occupancy sum (eigenvalues):    1280.000000001
                 HOMO-LUMO gap:       0.000010085 Eh
                 Mid-gap level:       0.210934827 Eh

                        Orbital | Energy (Eh) | Occupancy
                            1    -0.539272414   1.0000000
                        .......   ...........   .........
                         1272     0.139367396   0.9999885
                         1273     0.139828857   0.9999867
                         1274     0.139834595   0.9999867
                         1275     0.140947720   0.9999811
                         1276     0.140950004   0.9999811
                         1277     0.141416237   0.9999781
                         1278     0.141418522   0.9999781
                         1279     0.141522567   0.9999774
                         1280     0.141991163   0.9999738
                         1281     0.210929785   0.0000132
                        ....... -- gap at 0K -- .........
                         1282     0.210939870   0.0000132
                         1283     0.211113222   0.0000125
                         1284     0.211117247   0.0000125
                         1285     0.211184092   0.0000122
                         1286     0.211194265   0.0000122
                         1287     0.211224105   0.0000121
                         1288     0.211371468   0.0000115
                         1289     0.211375489   0.0000115
                         1290     0.211401535   0.0000114
                         1291     0.211411224   0.0000113
                        .......   ...........   .........
                         2560     1.057056803   0.0000000

================================================================================

===================== Writing canonical molecular orbitals =====================
| Orbital  Energy (eV)  Norm     |
| HOMO      5.73969151  1.000000 | Writing "4.158936_GO_manual_4x64graphite_HOMO.cube" ... done
Writing "4.158936_GO_manual_4x64graphite_HOMO.dx" ... done
| LUMO      5.73996593  1.000000 | Writing "4.158936_GO_manual_4x64graphite_LUMO.cube" ... done
Writing "4.158936_GO_manual_4x64graphite_LUMO.dx" ... done
================================================================================
 
===================== Density of States (DOS) calculation ======================
Writing "4.158936_GO_manual_4x64graphite_DOS.txt" ...  done
================================================================================
 
Writing bands to file "4.158936_GO_manual_4x64graphite.val_bands" ... done
 
================ Projected Density of States (pDOS) calculation ================
 
Constructing AM resolved functions  ...... done
Writing NGWF plot files in formats: CUBE DX ...  done
 
Performing overlap integrals ...  done
 
Computing pDOS weights ...  done
 
All bands spilling parameter =   2.82 %
Occupancy-weighted spilling parameter =   1.00 %
 
 => Outputting data for OptaDOS <=
 
Writing pDOS weights to file "4.158936_GO_manual_4x64graphite.val_pdos_bin" ... done
 
Writing band gradients to file "4.158936_GO_manual_4x64graphite.val_dome_bin" ... done
 
Writing Castep output cell file to "4.158936_GO_manual_4x64graphite-out.cell" ... done
 
 => Computing Gaussian smeared pDOS <= 
Writing "4.158936_GO_manual_4x64graphite_PDOS.txt" ...  done
 
 => Computing Occupancy-weighted Gaussian smeared pDOS <= 
Writing "4.158936_GO_manual_4x64graphite_occ_PDOS.txt" ...  done
  => Band centres: 
 S band centre of group 1:  -15.617995 eV
 P band centre of group 1:   -8.502804 eV
  Band centres done. <=
  => Integrated number of electrons in each AM band: 
 S num electrons of group 1:  574.269144
 P num electrons of group 1: 1960.068420
  Integrated number of electrons done. <=
================================================================================

------------------------------ TIMING INFORMATION ------------------------------
AVERAGE TIME:    2777.417s on     40 node(s)                                    
TOTAL TIME:      2777.417s on     40 node(s)                                    
================= AVERAGE TIMINGS FROM ALL NODES (CUMULATIVE) ==================
|| TAG                                    #calls    cpu time   %total  Gflops ||
|| work_imbalance                       :     1        0.00s   0.000%  ------ ||
|| paw_tcore_hartree_on_grid            :     1        0.01s   0.000%  ------ ||
|| paw_sphere_density_on_grid           :     1        0.01s   0.001%  ------ ||
|| paw_tcore_density                    :     1        0.02s   0.001%  ------ ||
|| sparse_set_to_garbage                :   135        0.02s   0.001%  ------ ||
|| paw_dij_hartree                      :   276        0.04s   0.001%  ------ ||
|| pseudo_make_structure_factor         :     1        0.07s   0.002%  ------ ||
|| basis_extract_function_from_box      :  1536        0.07s   0.002%  ------ ||
|| paw_species_calc_proj_prec_mat       :     1        0.12s   0.004%  ------ ||
|| paw_dataset_init                     :     1        0.17s   0.006%  ------ ||
|| density_init_guess_real              :     1        0.17s   0.006%  ------ ||
|| restart_kernel_write                 :    13        0.58s   0.021%  ------ ||
|| ngwfs_initialise_from_radial         :     2        0.67s   0.024%  ------ ||
|| sparse_init                          :     1        0.86s   0.031%  ------ ||
|| dense_normal_eigensolve              :     1        1.15s   0.042%  ------ ||
|| hartree_on_grid                      :   209        1.41s   0.051%  ------ ||
|| projectors_init_fftbox_recip         :   121        2.37s   0.085%  ------ ||
|| fourier_apply_box_pair               :  2272        3.76s   0.135% 560.683 ||
|| ewald_calculate_energy               :     1        3.87s   0.139%  ------ ||
|| basis_copy_function_to_box           : 19776        4.25s   0.153%  ------ ||
|| augmentation_screen_dij              :   214        4.73s   0.170%  ------ ||
|| sparse_embed_hotelling_invert_embed  :    23        6.63s   0.239%  ------ ||
|| sw_init                              :     1        6.73s   0.242%  ------ ||
|| ngwf_gradient_coeffs                 :    12        8.32s   0.300%  ------ ||
|| sparse_trace                         :  2500       10.26s   0.370%  ------ ||
|| cell_grid_extract_box_real           :  8300       15.41s   0.555%  ------ ||
|| cell_grid_deposit_box_real           : 26928       15.94s   0.574%  ------ ||
|| fourier_apply_cell_backward          :  6450       16.46s   0.593%  57.889 ||
|| fourier_apply_cell_forward           :  6033       16.87s   0.607%  52.838 ||
|| paw_dij_xc                           :   276       18.93s   0.682%  ------ ||
|| aug_nonlocal_mat                     :   264       26.63s   0.959%  ------ ||
|| density_fftbox_deposit_to_cell       : 13376       31.71s   1.142%  ------ ||
|| augmentation_density_on_grid         :   209       38.50s   1.386%  ------ ||
|| function_ops_brappd_ketppd           :    48       38.94s   1.402%  ------ ||
|| projectors_func_ovlp_box             :    24       42.05s   1.514%  ------ ||
|| hamiltonian_energy_components        :     3       42.51s   1.530%  ------ ||
|| eigenstates_pdos                     :     1       52.42s   1.887%  ------ ||
|| eigenstates_calculate                :     1       57.08s   2.055%  ------ ||
|| integrals_kinetic                    :    23       66.17s   2.382%  ------ ||
|| nlxc_vdw_energy                      :   416       68.21s   2.456%  ------ ||
|| xc_energy_potential                  :   208       70.72s   2.546%  ------ ||
|| dense_eigensolve                     :   182       89.20s   3.212%  ------ ||
|| potential_apply_to_ngwf_batch        :   256       98.73s   3.555%  ------ ||
|| sparse_product                       :  2538      104.66s   3.768%  ------ ||
|| properties_calculate                 :     1      106.25s   3.826%  ------ ||
|| restart_ngwfs_tightbox_output        :    11      132.18s   4.759%  ------ ||
|| basis_dot_function_with_box          : 5.164M     140.27s   5.050%  ------ ||
|| projectors_gradient_batch            :    48      162.77s   5.861%  ------ ||
|| integrals_locpot_mat_els_batch       :   256      185.61s   6.683%  ------ ||
|| fourier_apply_box                    : 62480      193.70s   6.974% 977.576 ||
|| edft_diag_ngwf_ham                   :   181      200.15s   7.206%  ------ ||
|| projectors_grad_precond_batch        :    48      240.95s   8.675%  ------ ||
|| density_fftbox_interpolate_multiply  : 13376      259.11s   9.329%  ------ ||
|| integrals_locpot_dbl_grid            :    64      285.39s  10.275%  ------ ||
|| density_batch_interp_deposit         :   836      320.59s  11.543%  ------ ||
|| edft_apply_smearing_operator         :   181      390.06s  14.044%  ------ ||
|| basis_add_function_to_box            : 15.07M     393.75s  14.177%  ------ ||
|| ngwf_gradient_build_batch            :    48      440.07s  15.845%  ------ ||
|| density_batch_row_sums               :   836      541.17s  19.485%  ------ ||
|| ngwf_gradient_batch                  :    48      595.17s  21.429%  ------ ||
|| ngwf_gradient_lnv                    :    12      618.41s  22.266%  ------ ||
|| density_on_dbl_grid                  :   209      873.44s  31.448%  ------ ||
|| hamiltonian_lhxc_calculate           :   204      962.51s  34.655%  ------ ||
|| edft_calculate                       :    12     1627.05s  58.581%  ------ ||
|| ngwf_cg_optimise                     :     1     2646.93s  95.302%  ------ ||
|| total_time                           :     1     2777.42s 100.000%  ------ ||
================================================================================
Overhead of generating timer report: 
- 0 ms averaging over threads,
- 6 ms ensuring consistency across MPI ranks,
- 0 ms printing in order.

Job completed: 06-03-2020 03:31 (-0000)

