 +---------------------------------------------------------------+
 |                                                               |
 |        ####### #     # ####### ####### ####### ######         |
 |        #     # ##    # #          #    #       #     #        |
 |        #     # # #   # #          #    #       #     #        |
 |        #     # #  #  # #####      #    #####   ######         |
 |        #     # #   # # #          #    #       #              |
 |        #     # #    ## #          #    #       #              |
 |        ####### #     # #######    #    ####### #              |
 |                                                               |
 |        Linear-Scaling Ab Initio Total Energy Program          |
 |                                                               |
 |          Release for academic collaborators of ODG            |
 |                                             Version 5.3.2.12  |
 |                                                               |
 +---------------------------------------------------------------+
 |                                                               |
 |  Authors:                                                     |
 |  Jacek Dziedzic, Peter D. Haynes, Nicholas D. M. Hine,        |
 |  Arash. A. Mostofi, Mike C. Payne and Chris-Kriton Skylaris   |
 |                                                               |
 |  Contributors:                                                |
 |  J. Aarons, L. Andrinopoulos, P. W. Avraam, R. A. Bell,       |
 |  A. Bhandari, G. A. Bramley, R. J. Charlton, S. J. Clark,     |
 |  R. J. Clements, G. C. Constantinescu, F. Corsetti,           |
 |  N. Corsini, O. Dieguez, S. M. M. Dubois, K. K. B. Duff,      |
 |  J. M. Escartin, A. Greco, H. Helal, Q. O. Hill, L. P. Lee,   |
 |  J.-H. Li, E. B. Linscott, G. Moynihan, D. D. O`Regan,        |
 |  O. K. Okan, M. J. S. Phipps, C. J. Pickard,                  |
 |  J. C. A. Prentice, M. I. J. Probert, L. E. Ratcliff,         |
 |  M. Robinson, A. Ruiz Serrano, J. S. Spencer, E. W. Tait,     |
 |  G. Teobaldi, D. Turban, V. Vitale, K. A. Wilkinson,          |
 |  C. Weber, J. C. Womack, N. Yeung and T. J. Zuehlsdorff       |
 |                                                               |
 |                                   Copyright (c) 2004-2020     |
 |                                                               |
 |  Please cite:                                                 |
 |  "Introducing ONETEP: Linear-scaling density functional       |
 |   simulations on parallel computers".                         |
 |   C.-K. Skylaris, P. D. Haynes, A. A. Mostofi, M. C. Payne.   |
 |   J. Chem. Phys. 122 084119 (2005).                           |
 |                                                               |
 |          in all publications arising from your use of ONETEP. |
 |                                                               |
 +---------------------------------------------------------------+
 |                                                               |
 |   ONETEP is based on developments described in the following  |
 |   publications:                                               |
 |                                                               |
 |  "Nonorthogonal generalized Wannier function pseudopotential  |
 |   plane-wave method".                                         |
 |   C.-K. Skylaris, A. A. Mostofi, P. D. Haynes, O. Dieguez,    |
 |   M. C. Payne.                                                |
 |   Phys. Rev. B 66 035119 (2002).                              |
 |                                                               |
 |  "Preconditioned iterative minimization for linear-scaling    |
 |   electronic structure calculations".                         |
 |   A. A. Mostofi, P. D. Haynes, C.-K. Skylaris, M. C. Payne.   |
 |   J. Chem. Phys. 119(17), pp.8842-8848 (2003).                |
 |                                                               |
 |  "Total-energy calculations on a real space grid with         |
 |   localized functions and a plane-wave basis".                |
 |   A. A. Mostofi, C.-K. Skylaris, P. D. Haynes, M. C. Payne.   |
 |   Comput. Phys. Commun. 147, pp.788-802 (2002).               |
 |                                                               |
 |  "Accurate kinetic energy evaluation in electronic structure  |
 |   calculations with localized functions on real space grids"  |
 |   C.-K. Skylaris, A. A. Mostofi, P. D. Haynes, C. J. Pickard, |
 |   M. C. Payne.                                                |
 |   Comput. Phys. Commun. 140, pp.315-322 (2001).               |
 |                                                               |
 |  "Accurate ionic forces and geometry optimization in linear-  |
 |   scaling density-functional theory with local orbitals"      |
 |   N. D. M. Hine, M. Robinson, P. D. Haynes, C.-K. Skylaris,   |
 |   M. C. Payne, and A. A. Mostofi.                             |
 |   Phys. Rev. B 83 195102 (2011).                              |
 |                                                               |
 +---------------------------------------------------------------+

Job started: 09-03-2020 13:08 (-0000)
 
Reading parameters from file "5.500496_GO_manual_4x64graphite.dat" ...

WARNING: "cutoff_energy" not specified, but "psinc_spacing" specified.
         Using the latter to set the KE cutoff energy to  732.32021eV,
         thus *overriding* the default.

... done

If your calculation crashes here, before "Checking processes and threads..."
is displayed, then your stack size is insufficient.
If so, use "ulimit -s unlimited" at runtime.
You can disable this check with "check_stack_size F".

Checking processes and threads...
   Determining the default number of threads...
      No default threads set at compilation time: defaulting to 1.
      OpenMP library call suggests 4 threads.
      Hybrid MPI-OpenMP compilation detected.
      Number of MPI processes > 1.
      OMP_NUM_THREADS environment variable present and
      its value matches the one obtained from the OpenMP library call.
      Using this value as default.
      Default threads: 4
      Default applies to threads_max and threads_num_fftboxes.
      Settings in the input file override this default.
   ... done

   Running with 40 MPI processes.
   There are 10 MPI processes running on the same node as the root process.
   Each MPI process is using: 
               1 threads for simulation cell FFTs.
               1 threads for parallel FFT box operations.
               4 threads for loops over batched FFT box operations.
               4 threads in other parallel regions.
... done

Basic input checks...
Resetting ngwf_cg_rotate to TRUE for EDFT calculations
... done

Reading geometry and species blocks from file "5.500496_GO_manual_4x64graphite.dat" ...
    
  PSINC grid spacing along a1 set to   0.511215680000a0 from input file.
  PSINC grid spacing along a2 set to   0.531284090000a0 from input file.
  PSINC grid spacing along a3 set to   0.507046450000a0 from input file.
  Number of PPD points along a3 set to 1.  This is 
  the default value, it may have been provided also in the input file.
... done
 Writing xyz coordinates to file "5.500496_GO_manual_4x64graphite.xyz" ... done


--------------------------------------------------------------------------------
---------------------------------- INPUT FILE ----------------------------------
--------------------------------------------------------------------------------

task : singlepoint                                                              
do_properties : true                                                            
dx_format T                                                                     
edft T                                                                          
output_detail VERBOSE                                                           
write_xyz T                                                                     
xc_functional VDWDF2                                                            
PSINC_SPACING 0.51121568 0.53128409 0.50704645                                  
paw T                                                                           
pdos_max_l = 2                                                                  
dos_smear  0.1 eV                                                               
popn_calculate T                                                                
PDOS_PSEUDOATOMIC T                                                             
PDOS_REDUCE_SWS F                                                               
PDOS_CONSTRUCT_BASIS F                                                          
PDOS_LOWDIN T                                                                   
PDOS_ORTH_ATOM_BLOCKS F                                                         
PDOS_LCAO_OPTIMIZE F                                                            
pdos_optados_output T                                                           
homo_plot 0                                                                     
lumo_plot 0                                                                     
homo_dens_plot -1                                                               
lumo_dens_plot -1                                                               
%BLOCK SPECIES                                                                  
C C 6 4 9.0                                                                     
%ENDBLOCK SPECIES                                                               
%BLOCK SPECIES_POT                                                              
C "~/pp/paw/c_pbe_abinit.paw"                                                   
%ENDBLOCK SPECIES_POT                                                           
%BLOCK SPECIES_ATOMIC_SET                                                       
C "SOLVE conf=2s2 2p2"                                                          
%ENDBLOCK SPECIES_ATOMIC_SET                                                    
%BLOCK LATTICE_CART                                                             
32.21  0.00  0.00                                                               
0.00 18.59  0.00                                                                
0.00  0.00 103.94                                                               
%ENDBLOCK LATTICE_CART                                                          
%BLOCK POSITIONS_ABS                                                            
C  0.00  0.00  5.20                                                             
C  0.00  0.00 25.99                                                             
C  0.00  0.00 46.78                                                             
C  0.00  0.00 67.56                                                             
C  0.00  0.00 88.35                                                             
C  0.00  4.65  5.20                                                             
C  0.00  4.65 25.99                                                             
C  0.00  4.65 46.78                                                             
C  0.00  4.65 67.56                                                             
C  0.00  4.65 88.35                                                             
C  4.03  2.32  5.20                                                             
C  4.03  2.32 25.99                                                             
C  4.03  2.32 46.78                                                             
C  4.03  2.32 67.56                                                             
C  4.03  2.32 88.35                                                             
C  8.05  0.00  5.20                                                             
C  8.05  0.00 25.99                                                             
C  8.05  0.00 46.78                                                             
C  8.05  0.00 67.56                                                             
C  8.05  0.00 88.35                                                             
C  0.00  9.30  5.20                                                             
C  0.00  9.30 25.99                                                             
C  0.00  9.30 46.78                                                             
C  0.00  9.30 67.56                                                             
C  0.00  9.30 88.35                                                             
C  4.03  6.97  5.20                                                             
C  4.03  6.97 25.99                                                             
C  4.03  6.97 46.78                                                             
C  4.03  6.97 67.56                                                             
C  4.03  6.97 88.35                                                             
C  8.05  4.65  5.20                                                             
C  8.05  4.65 25.99                                                             
C  8.05  4.65 46.78                                                             
C  8.05  4.65 67.56                                                             
C  8.05  4.65 88.35                                                             
C 12.08  2.32  5.20                                                             
C 12.08  2.32 25.99                                                             
C 12.08  2.32 46.78                                                             
C 12.08  2.32 67.56                                                             
C 12.08  2.32 88.35                                                             
C 16.10  0.00  5.20                                                             
C 16.10  0.00 25.99                                                             
C 16.10  0.00 46.78                                                             
C 16.10  0.00 67.56                                                             
C 16.10  0.00 88.35                                                             
C  0.00 13.95  5.20                                                             
C  0.00 13.95 25.99                                                             
C  0.00 13.95 46.78                                                             
C  0.00 13.95 67.56                                                             
C  0.00 13.95 88.35                                                             
C  4.03 11.62  5.20                                                             
C  4.03 11.62 25.99                                                             
C  4.03 11.62 46.78                                                             
C  4.03 11.62 67.56                                                             
C  4.03 11.62 88.35                                                             
C  8.05  9.30  5.20                                                             
C  8.05  9.30 25.99                                                             
C  8.05  9.30 46.78                                                             
C  8.05  9.30 67.56                                                             
C  8.05  9.30 88.35                                                             
C 12.08  6.97  5.20                                                             
C 12.08  6.97 25.99                                                             
C 12.08  6.97 46.78                                                             
C 12.08  6.97 67.56                                                             
C 12.08  6.97 88.35                                                             
C 16.10  4.65  5.20                                                             
C 16.10  4.65 25.99                                                             
C 16.10  4.65 46.78                                                             
C 16.10  4.65 67.56                                                             
C 16.10  4.65 88.35                                                             
C 20.13  2.32  5.20                                                             
C 20.13  2.32 25.99                                                             
C 20.13  2.32 46.78                                                             
C 20.13  2.32 67.56                                                             
C 20.13  2.32 88.35                                                             
C 24.16  0.00  5.20                                                             
C 24.16  0.00 25.99                                                             
C 24.16  0.00 46.78                                                             
C 24.16  0.00 67.56                                                             
C 24.16  0.00 88.35                                                             
C  4.03 16.27  5.20                                                             
C  4.03 16.27 25.99                                                             
C  4.03 16.27 46.78                                                             
C  4.03 16.27 67.56                                                             
C  4.03 16.27 88.35                                                             
C  8.05 13.95  5.20                                                             
C  8.05 13.95 25.99                                                             
C  8.05 13.95 46.78                                                             
C  8.05 13.95 67.56                                                             
C  8.05 13.95 88.35                                                             
C 12.08 11.62  5.20                                                             
C 12.08 11.62 25.99                                                             
C 12.08 11.62 46.78                                                             
C 12.08 11.62 67.56                                                             
C 12.08 11.62 88.35                                                             
C 16.10  9.30  5.20                                                             
C 16.10  9.30 25.99                                                             
C 16.10  9.30 46.78                                                             
C 16.10  9.30 67.56                                                             
C 16.10  9.30 88.35                                                             
C 20.13  6.97  5.20                                                             
C 20.13  6.97 25.99                                                             
C 20.13  6.97 46.78                                                             
C 20.13  6.97 67.56                                                             
C 20.13  6.97 88.35                                                             
C 24.16  4.65  5.20                                                             
C 24.16  4.65 25.99                                                             
C 24.16  4.65 46.78                                                             
C 24.16  4.65 67.56                                                             
C 24.16  4.65 88.35                                                             
C 28.18  2.32  5.20                                                             
C 28.18  2.32 25.99                                                             
C 28.18  2.32 46.78                                                             
C 28.18  2.32 67.56                                                             
C 28.18  2.32 88.35                                                             
C 12.08 16.27  5.20                                                             
C 12.08 16.27 25.99                                                             
C 12.08 16.27 46.78                                                             
C 12.08 16.27 67.56                                                             
C 12.08 16.27 88.35                                                             
C 16.10 13.95  5.20                                                             
C 16.10 13.95 25.99                                                             
C 16.10 13.95 46.78                                                             
C 16.10 13.95 67.56                                                             
C 16.10 13.95 88.35                                                             
C 20.13 11.62  5.20                                                             
C 20.13 11.62 25.99                                                             
C 20.13 11.62 46.78                                                             
C 20.13 11.62 67.56                                                             
C 20.13 11.62 88.35                                                             
C 24.16  9.30  5.20                                                             
C 24.16  9.30 25.99                                                             
C 24.16  9.30 46.78                                                             
C 24.16  9.30 67.56                                                             
C 24.16  9.30 88.35                                                             
C 28.18  6.97  5.20                                                             
C 28.18  6.97 25.99                                                             
C 28.18  6.97 46.78                                                             
C 28.18  6.97 67.56                                                             
C 28.18  6.97 88.35                                                             
C 20.13 16.27  5.20                                                             
C 20.13 16.27 25.99                                                             
C 20.13 16.27 46.78                                                             
C 20.13 16.27 67.56                                                             
C 20.13 16.27 88.35                                                             
C 24.16 13.95  5.20                                                             
C 24.16 13.95 25.99                                                             
C 24.16 13.95 46.78                                                             
C 24.16 13.95 67.56                                                             
C 24.16 13.95 88.35                                                             
C 28.18 11.62  5.20                                                             
C 28.18 11.62 25.99                                                             
C 28.18 11.62 46.78                                                             
C 28.18 11.62 67.56                                                             
C 28.18 11.62 88.35                                                             
C 28.18 16.27  5.20                                                             
C 28.18 16.27 25.99                                                             
C 28.18 16.27 46.78                                                             
C 28.18 16.27 67.56                                                             
C 28.18 16.27 88.35                                                             
C  0.00  0.00 15.59                                                             
C  0.00  0.00 36.38                                                             
C  0.00  0.00 57.17                                                             
C  0.00  0.00 77.96                                                             
C  0.00  0.00 98.75                                                             
C  0.00  4.65 15.59                                                             
C  0.00  4.65 36.38                                                             
C  0.00  4.65 57.17                                                             
C  0.00  4.65 77.96                                                             
C  0.00  4.65 98.75                                                             
C  4.03  2.32 15.59                                                             
C  4.03  2.32 36.38                                                             
C  4.03  2.32 57.17                                                             
C  4.03  2.32 77.96                                                             
C  4.03  2.32 98.75                                                             
C  8.05  0.00 15.59                                                             
C  8.05  0.00 36.38                                                             
C  8.05  0.00 57.17                                                             
C  8.05  0.00 77.96                                                             
C  8.05  0.00 98.75                                                             
C  0.00  9.30 15.59                                                             
C  0.00  9.30 36.38                                                             
C  0.00  9.30 57.17                                                             
C  0.00  9.30 77.96                                                             
C  0.00  9.30 98.75                                                             
C  4.03  6.97 15.59                                                             
C  4.03  6.97 36.38                                                             
C  4.03  6.97 57.17                                                             
C  4.03  6.97 77.96                                                             
C  4.03  6.97 98.75                                                             
C  8.05  4.65 15.59                                                             
C  8.05  4.65 36.38                                                             
C  8.05  4.65 57.17                                                             
C  8.05  4.65 77.96                                                             
C  8.05  4.65 98.75                                                             
C 12.08  2.32 15.59                                                             
C 12.08  2.32 36.38                                                             
C 12.08  2.32 57.17                                                             
C 12.08  2.32 77.96                                                             
C 12.08  2.32 98.75                                                             
C 16.10  0.00 15.59                                                             
C 16.10  0.00 36.38                                                             
C 16.10  0.00 57.17                                                             
C 16.10  0.00 77.96                                                             
C 16.10  0.00 98.75                                                             
C  0.00 13.95 15.59                                                             
C  0.00 13.95 36.38                                                             
C  0.00 13.95 57.17                                                             
C  0.00 13.95 77.96                                                             
C  0.00 13.95 98.75                                                             
C  4.03 11.62 15.59                                                             
C  4.03 11.62 36.38                                                             
C  4.03 11.62 57.17                                                             
C  4.03 11.62 77.96                                                             
C  4.03 11.62 98.75                                                             
C  8.05  9.30 15.59                                                             
C  8.05  9.30 36.38                                                             
C  8.05  9.30 57.17                                                             
C  8.05  9.30 77.96                                                             
C  8.05  9.30 98.75                                                             
C 12.08  6.97 15.59                                                             
C 12.08  6.97 36.38                                                             
C 12.08  6.97 57.17                                                             
C 12.08  6.97 77.96                                                             
C 12.08  6.97 98.75                                                             
C 16.10  4.65 15.59                                                             
C 16.10  4.65 36.38                                                             
C 16.10  4.65 57.17                                                             
C 16.10  4.65 77.96                                                             
C 16.10  4.65 98.75                                                             
C 20.13  2.32 15.59                                                             
C 20.13  2.32 36.38                                                             
C 20.13  2.32 57.17                                                             
C 20.13  2.32 77.96                                                             
C 20.13  2.32 98.75                                                             
C 24.16  0.00 15.59                                                             
C 24.16  0.00 36.38                                                             
C 24.16  0.00 57.17                                                             
C 24.16  0.00 77.96                                                             
C 24.16  0.00 98.75                                                             
C  4.03 16.27 15.59                                                             
C  4.03 16.27 36.38                                                             
C  4.03 16.27 57.17                                                             
C  4.03 16.27 77.96                                                             
C  4.03 16.27 98.75                                                             
C  8.05 13.95 15.59                                                             
C  8.05 13.95 36.38                                                             
C  8.05 13.95 57.17                                                             
C  8.05 13.95 77.96                                                             
C  8.05 13.95 98.75                                                             
C 12.08 11.62 15.59                                                             
C 12.08 11.62 36.38                                                             
C 12.08 11.62 57.17                                                             
C 12.08 11.62 77.96                                                             
C 12.08 11.62 98.75                                                             
C 16.10  9.30 15.59                                                             
C 16.10  9.30 36.38                                                             
C 16.10  9.30 57.17                                                             
C 16.10  9.30 77.96                                                             
C 16.10  9.30 98.75                                                             
C 20.13  6.97 15.59                                                             
C 20.13  6.97 36.38                                                             
C 20.13  6.97 57.17                                                             
C 20.13  6.97 77.96                                                             
C 20.13  6.97 98.75                                                             
C 24.16  4.65 15.59                                                             
C 24.16  4.65 36.38                                                             
C 24.16  4.65 57.17                                                             
C 24.16  4.65 77.96                                                             
C 24.16  4.65 98.75                                                             
C 28.18  2.32 15.59                                                             
C 28.18  2.32 36.38                                                             
C 28.18  2.32 57.17                                                             
C 28.18  2.32 77.96                                                             
C 28.18  2.32 98.75                                                             
C 12.08 16.27 15.59                                                             
C 12.08 16.27 36.38                                                             
C 12.08 16.27 57.17                                                             
C 12.08 16.27 77.96                                                             
C 12.08 16.27 98.75                                                             
C 16.10 13.95 15.59                                                             
C 16.10 13.95 36.38                                                             
C 16.10 13.95 57.17                                                             
C 16.10 13.95 77.96                                                             
C 16.10 13.95 98.75                                                             
C 20.13 11.62 15.59                                                             
C 20.13 11.62 36.38                                                             
C 20.13 11.62 57.17                                                             
C 20.13 11.62 77.96                                                             
C 20.13 11.62 98.75                                                             
C 24.16  9.30 15.59                                                             
C 24.16  9.30 36.38                                                             
C 24.16  9.30 57.17                                                             
C 24.16  9.30 77.96                                                             
C 24.16  9.30 98.75                                                             
C 28.18  6.97 15.59                                                             
C 28.18  6.97 36.38                                                             
C 28.18  6.97 57.17                                                             
C 28.18  6.97 77.96                                                             
C 28.18  6.97 98.75                                                             
C 20.13 16.27 15.59                                                             
C 20.13 16.27 36.38                                                             
C 20.13 16.27 57.17                                                             
C 20.13 16.27 77.96                                                             
C 20.13 16.27 98.75                                                             
C 24.16 13.95 15.59                                                             
C 24.16 13.95 36.38                                                             
C 24.16 13.95 57.17                                                             
C 24.16 13.95 77.96                                                             
C 24.16 13.95 98.75                                                             
C 28.18 11.62 15.59                                                             
C 28.18 11.62 36.38                                                             
C 28.18 11.62 57.17                                                             
C 28.18 11.62 77.96                                                             
C 28.18 11.62 98.75                                                             
C 28.18 16.27 15.59                                                             
C 28.18 16.27 36.38                                                             
C 28.18 16.27 57.17                                                             
C 28.18 16.27 77.96                                                             
C 28.18 16.27 98.75                                                             
C  1.34  2.32  5.20                                                             
C  1.34  2.32 25.99                                                             
C  1.34  2.32 46.78                                                             
C  1.34  2.32 67.56                                                             
C  1.34  2.32 88.35                                                             
C  5.37  0.00  5.20                                                             
C  5.37  0.00 25.99                                                             
C  5.37  0.00 46.78                                                             
C  5.37  0.00 67.56                                                             
C  5.37  0.00 88.35                                                             
C  1.34  6.97  5.20                                                             
C  1.34  6.97 25.99                                                             
C  1.34  6.97 46.78                                                             
C  1.34  6.97 67.56                                                             
C  1.34  6.97 88.35                                                             
C  5.37  4.65  5.20                                                             
C  5.37  4.65 25.99                                                             
C  5.37  4.65 46.78                                                             
C  5.37  4.65 67.56                                                             
C  5.37  4.65 88.35                                                             
C  9.39  2.32  5.20                                                             
C  9.39  2.32 25.99                                                             
C  9.39  2.32 46.78                                                             
C  9.39  2.32 67.56                                                             
C  9.39  2.32 88.35                                                             
C 13.42  0.00  5.20                                                             
C 13.42  0.00 25.99                                                             
C 13.42  0.00 46.78                                                             
C 13.42  0.00 67.56                                                             
C 13.42  0.00 88.35                                                             
C  1.34 11.62  5.20                                                             
C  1.34 11.62 25.99                                                             
C  1.34 11.62 46.78                                                             
C  1.34 11.62 67.56                                                             
C  1.34 11.62 88.35                                                             
C  5.37  9.30  5.20                                                             
C  5.37  9.30 25.99                                                             
C  5.37  9.30 46.78                                                             
C  5.37  9.30 67.56                                                             
C  5.37  9.30 88.35                                                             
C  9.39  6.97  5.20                                                             
C  9.39  6.97 25.99                                                             
C  9.39  6.97 46.78                                                             
C  9.39  6.97 67.56                                                             
C  9.39  6.97 88.35                                                             
C 13.42  4.65  5.20                                                             
C 13.42  4.65 25.99                                                             
C 13.42  4.65 46.78                                                             
C 13.42  4.65 67.56                                                             
C 13.42  4.65 88.35                                                             
C 17.45  2.32  5.20                                                             
C 17.45  2.32 25.99                                                             
C 17.45  2.32 46.78                                                             
C 17.45  2.32 67.56                                                             
C 17.45  2.32 88.35                                                             
C 21.47  0.00  5.20                                                             
C 21.47  0.00 25.99                                                             
C 21.47  0.00 46.78                                                             
C 21.47  0.00 67.56                                                             
C 21.47  0.00 88.35                                                             
C  1.34 16.27  5.20                                                             
C  1.34 16.27 25.99                                                             
C  1.34 16.27 46.78                                                             
C  1.34 16.27 67.56                                                             
C  1.34 16.27 88.35                                                             
C  5.37 13.95  5.20                                                             
C  5.37 13.95 25.99                                                             
C  5.37 13.95 46.78                                                             
C  5.37 13.95 67.56                                                             
C  5.37 13.95 88.35                                                             
C  9.39 11.62  5.20                                                             
C  9.39 11.62 25.99                                                             
C  9.39 11.62 46.78                                                             
C  9.39 11.62 67.56                                                             
C  9.39 11.62 88.35                                                             
C 13.42  9.30  5.20                                                             
C 13.42  9.30 25.99                                                             
C 13.42  9.30 46.78                                                             
C 13.42  9.30 67.56                                                             
C 13.42  9.30 88.35                                                             
C 17.45  6.97  5.20                                                             
C 17.45  6.97 25.99                                                             
C 17.45  6.97 46.78                                                             
C 17.45  6.97 67.56                                                             
C 17.45  6.97 88.35                                                             
C 21.47  4.65  5.20                                                             
C 21.47  4.65 25.99                                                             
C 21.47  4.65 46.78                                                             
C 21.47  4.65 67.56                                                             
C 21.47  4.65 88.35                                                             
C 25.50  2.32  5.20                                                             
C 25.50  2.32 25.99                                                             
C 25.50  2.32 46.78                                                             
C 25.50  2.32 67.56                                                             
C 25.50  2.32 88.35                                                             
C 29.52  0.00  5.20                                                             
C 29.52  0.00 25.99                                                             
C 29.52  0.00 46.78                                                             
C 29.52  0.00 67.56                                                             
C 29.52  0.00 88.35                                                             
C  9.39 16.27  5.20                                                             
C  9.39 16.27 25.99                                                             
C  9.39 16.27 46.78                                                             
C  9.39 16.27 67.56                                                             
C  9.39 16.27 88.35                                                             
C 13.42 13.95  5.20                                                             
C 13.42 13.95 25.99                                                             
C 13.42 13.95 46.78                                                             
C 13.42 13.95 67.56                                                             
C 13.42 13.95 88.35                                                             
C 17.45 11.62  5.20                                                             
C 17.45 11.62 25.99                                                             
C 17.45 11.62 46.78                                                             
C 17.45 11.62 67.56                                                             
C 17.45 11.62 88.35                                                             
C 21.47  9.30  5.20                                                             
C 21.47  9.30 25.99                                                             
C 21.47  9.30 46.78                                                             
C 21.47  9.30 67.56                                                             
C 21.47  9.30 88.35                                                             
C 25.50  6.97  5.20                                                             
C 25.50  6.97 25.99                                                             
C 25.50  6.97 46.78                                                             
C 25.50  6.97 67.56                                                             
C 25.50  6.97 88.35                                                             
C 29.52  4.65  5.20                                                             
C 29.52  4.65 25.99                                                             
C 29.52  4.65 46.78                                                             
C 29.52  4.65 67.56                                                             
C 29.52  4.65 88.35                                                             
C 17.45 16.27  5.20                                                             
C 17.45 16.27 25.99                                                             
C 17.45 16.27 46.78                                                             
C 17.45 16.27 67.56                                                             
C 17.45 16.27 88.35                                                             
C 21.47 13.95  5.20                                                             
C 21.47 13.95 25.99                                                             
C 21.47 13.95 46.78                                                             
C 21.47 13.95 67.56                                                             
C 21.47 13.95 88.35                                                             
C 25.50 11.62  5.20                                                             
C 25.50 11.62 25.99                                                             
C 25.50 11.62 46.78                                                             
C 25.50 11.62 67.56                                                             
C 25.50 11.62 88.35                                                             
C 29.52  9.30  5.20                                                             
C 29.52  9.30 25.99                                                             
C 29.52  9.30 46.78                                                             
C 29.52  9.30 67.56                                                             
C 29.52  9.30 88.35                                                             
C 25.50 16.27  5.20                                                             
C 25.50 16.27 25.99                                                             
C 25.50 16.27 46.78                                                             
C 25.50 16.27 67.56                                                             
C 25.50 16.27 88.35                                                             
C 29.52 13.95  5.20                                                             
C 29.52 13.95 25.99                                                             
C 29.52 13.95 46.78                                                             
C 29.52 13.95 67.56                                                             
C 29.52 13.95 88.35                                                             
C  2.68  0.00 15.59                                                             
C  2.68  0.00 36.38                                                             
C  2.68  0.00 57.17                                                             
C  2.68  0.00 77.96                                                             
C  2.68  0.00 98.75                                                             
C  2.68  4.65 15.59                                                             
C  2.68  4.65 36.38                                                             
C  2.68  4.65 57.17                                                             
C  2.68  4.65 77.96                                                             
C  2.68  4.65 98.75                                                             
C  6.71  2.32 15.59                                                             
C  6.71  2.32 36.38                                                             
C  6.71  2.32 57.17                                                             
C  6.71  2.32 77.96                                                             
C  6.71  2.32 98.75                                                             
C 10.74  0.00 15.59                                                             
C 10.74  0.00 36.38                                                             
C 10.74  0.00 57.17                                                             
C 10.74  0.00 77.96                                                             
C 10.74  0.00 98.75                                                             
C  2.68  9.30 15.59                                                             
C  2.68  9.30 36.38                                                             
C  2.68  9.30 57.17                                                             
C  2.68  9.30 77.96                                                             
C  2.68  9.30 98.75                                                             
C  6.71  6.97 15.59                                                             
C  6.71  6.97 36.38                                                             
C  6.71  6.97 57.17                                                             
C  6.71  6.97 77.96                                                             
C  6.71  6.97 98.75                                                             
C 10.74  4.65 15.59                                                             
C 10.74  4.65 36.38                                                             
C 10.74  4.65 57.17                                                             
C 10.74  4.65 77.96                                                             
C 10.74  4.65 98.75                                                             
C 14.76  2.32 15.59                                                             
C 14.76  2.32 36.38                                                             
C 14.76  2.32 57.17                                                             
C 14.76  2.32 77.96                                                             
C 14.76  2.32 98.75                                                             
C 18.79  0.00 15.59                                                             
C 18.79  0.00 36.38                                                             
C 18.79  0.00 57.17                                                             
C 18.79  0.00 77.96                                                             
C 18.79  0.00 98.75                                                             
C  2.68 13.95 15.59                                                             
C  2.68 13.95 36.38                                                             
C  2.68 13.95 57.17                                                             
C  2.68 13.95 77.96                                                             
C  2.68 13.95 98.75                                                             
C  6.71 11.62 15.59                                                             
C  6.71 11.62 36.38                                                             
C  6.71 11.62 57.17                                                             
C  6.71 11.62 77.96                                                             
C  6.71 11.62 98.75                                                             
C 10.74  9.30 15.59                                                             
C 10.74  9.30 36.38                                                             
C 10.74  9.30 57.17                                                             
C 10.74  9.30 77.96                                                             
C 10.74  9.30 98.75                                                             
C 14.76  6.97 15.59                                                             
C 14.76  6.97 36.38                                                             
C 14.76  6.97 57.17                                                             
C 14.76  6.97 77.96                                                             
C 14.76  6.97 98.75                                                             
C 18.79  4.65 15.59                                                             
C 18.79  4.65 36.38                                                             
C 18.79  4.65 57.17                                                             
C 18.79  4.65 77.96                                                             
C 18.79  4.65 98.75                                                             
C 22.81  2.32 15.59                                                             
C 22.81  2.32 36.38                                                             
C 22.81  2.32 57.17                                                             
C 22.81  2.32 77.96                                                             
C 22.81  2.32 98.75                                                             
C 26.84  0.00 15.59                                                             
C 26.84  0.00 36.38                                                             
C 26.84  0.00 57.17                                                             
C 26.84  0.00 77.96                                                             
C 26.84  0.00 98.75                                                             
C  6.71 16.27 15.59                                                             
C  6.71 16.27 36.38                                                             
C  6.71 16.27 57.17                                                             
C  6.71 16.27 77.96                                                             
C  6.71 16.27 98.75                                                             
C 10.74 13.95 15.59                                                             
C 10.74 13.95 36.38                                                             
C 10.74 13.95 57.17                                                             
C 10.74 13.95 77.96                                                             
C 10.74 13.95 98.75                                                             
C 14.76 11.62 15.59                                                             
C 14.76 11.62 36.38                                                             
C 14.76 11.62 57.17                                                             
C 14.76 11.62 77.96                                                             
C 14.76 11.62 98.75                                                             
C 18.79  9.30 15.59                                                             
C 18.79  9.30 36.38                                                             
C 18.79  9.30 57.17                                                             
C 18.79  9.30 77.96                                                             
C 18.79  9.30 98.75                                                             
C 22.81  6.97 15.59                                                             
C 22.81  6.97 36.38                                                             
C 22.81  6.97 57.17                                                             
C 22.81  6.97 77.96                                                             
C 22.81  6.97 98.75                                                             
C 26.84  4.65 15.59                                                             
C 26.84  4.65 36.38                                                             
C 26.84  4.65 57.17                                                             
C 26.84  4.65 77.96                                                             
C 26.84  4.65 98.75                                                             
C 30.86  2.32 15.59                                                             
C 30.86  2.32 36.38                                                             
C 30.86  2.32 57.17                                                             
C 30.86  2.32 77.96                                                             
C 30.86  2.32 98.75                                                             
C 14.76 16.27 15.59                                                             
C 14.76 16.27 36.38                                                             
C 14.76 16.27 57.17                                                             
C 14.76 16.27 77.96                                                             
C 14.76 16.27 98.75                                                             
C 18.79 13.95 15.59                                                             
C 18.79 13.95 36.38                                                             
C 18.79 13.95 57.17                                                             
C 18.79 13.95 77.96                                                             
C 18.79 13.95 98.75                                                             
C 22.81 11.62 15.59                                                             
C 22.81 11.62 36.38                                                             
C 22.81 11.62 57.17                                                             
C 22.81 11.62 77.96                                                             
C 22.81 11.62 98.75                                                             
C 26.84  9.30 15.59                                                             
C 26.84  9.30 36.38                                                             
C 26.84  9.30 57.17                                                             
C 26.84  9.30 77.96                                                             
C 26.84  9.30 98.75                                                             
C 30.86  6.97 15.59                                                             
C 30.86  6.97 36.38                                                             
C 30.86  6.97 57.17                                                             
C 30.86  6.97 77.96                                                             
C 30.86  6.97 98.75                                                             
C 22.81 16.27 15.59                                                             
C 22.81 16.27 36.38                                                             
C 22.81 16.27 57.17                                                             
C 22.81 16.27 77.96                                                             
C 22.81 16.27 98.75                                                             
C 26.84 13.95 15.59                                                             
C 26.84 13.95 36.38                                                             
C 26.84 13.95 57.17                                                             
C 26.84 13.95 77.96                                                             
C 26.84 13.95 98.75                                                             
C 30.86 11.62 15.59                                                             
C 30.86 11.62 36.38                                                             
C 30.86 11.62 57.17                                                             
C 30.86 11.62 77.96                                                             
C 30.86 11.62 98.75                                                             
C 30.86 16.27 15.59                                                             
C 30.86 16.27 36.38                                                             
C 30.86 16.27 57.17                                                             
C 30.86 16.27 77.96                                                             
C 30.86 16.27 98.75                                                             
%ENDBLOCK POSITIONS_ABS                                                         

--------------------------------------------------------------------------------
-------------------------------- END INPUT FILE --------------------------------
--------------------------------------------------------------------------------


 
<<<<<<<<<<<<<<<<<<<<<<<<<<<<<<<<< Full system >>>>>>>>>>>>>>>>>>>>>>>>>>>>>>>>>>
<<<<<<<<<<<<<<<<<<<<<<<<<<< PAW Dataset information >>>>>>>>>>>>>>>>>>>>>>>>>>>
File: ~/pp/paw/c_pbe_abinit.paw; rc = 1.25 bohr; shape type =  3; rshape = 1.25 bohr;
  Atomic number:  6;  ionic charge:  4.000000
    Partial Wave 1: l = 0
    Partial Wave 2: l = 0
    Partial Wave 3: l = 1
    Partial Wave 4: l = 1
  Core charge supplied for Nonlinear Core Corrections
<<<<<<<<<<<<<<<<<<<<<<<<<<<<<<<<<<<<<<< >>>>>>>>>>>>>>>>>>>>>>>>>>>>>>>>>>>>>>>

-------------------------- Atom counting information ---------------------------
Symbol    Natoms    Nngwfs    Nprojs
  C        640      2560      5120
.......   ......    ......    ......
Totals:    640      2560      5120
--------------------------------------------------------------------------------

=============================== PSINC grid sizes ===============================
                      Simulation cell:   63 x  35 x 205
                              FFT-box:   63 x  35 x 117
                                  PPD:    7 x   5 x   1
Grid space d1=  0.511269841270a0 (KE cutoff=  29.06054Eh = 790.77748eV)
Grid space d2=  0.531142857143a0 (KE cutoff=  26.92659Eh = 732.70972eV)
Grid space d3=  0.507024390244a0 (KE cutoff=  29.54924Eh = 804.07570eV)
================================================================================
  
WARNING in cell_grid_distribute:
Average of less than one 23-slab per node, so workload cannot be
equally balanced between nodes.

********************* Fourier parallelisation information **********************
       Coarse grid (whole simulation cell) dimensions:     63    35   205
          Real-space ('12') slabs/node (min max mean):      5     6     5
         Recip-space ('23') slabs/node (min max mean):      0     1     0
********************************************************************************

********************* Fourier parallelisation information **********************
       Double grid (whole simulation cell) dimensions:    126    70   410
          Real-space ('12') slabs/node (min max mean):     10    11    10
         Recip-space ('23') slabs/node (min max mean):      1     2     1
********************************************************************************

Atom SCF Calculation for C  : Z (AE atom) =   6 : Z (PS atom) =   4
Config String: 2s2 2p2
Orbitals (num,occ):  2     2.00 2.00
Orbitals   (num,l):  2        0    1
Real-space Grid (nr,dr,rmax): 1293    0.0069659443    9.0000000000
Spherical Bessel Basis (nsws,lmax,cutoff):   37    2  161.4736382572
Confining potential (l,width,scale):  0    3.0000000000  100.0000000000
Confining potential (l,width,scale):  1    3.0000000000  100.0000000000
  1         -5.4691149987   -1.3647045835    4.5135257941   -1.6713568800
  2         -5.5214542834   -1.4154291535    4.4635199061   -1.6585170582
  3         -5.5221055910   -1.4439161209    4.4342087028   -1.6520281659
  4         -5.5287901521   -1.4522301802    4.4259176063   -1.6507873939
  5         -5.5308251003   -1.4557840400    4.4224142384   -1.6502632738
  6         -5.5317252094   -1.4571386008    4.4211068249   -1.6500892907
  7         -5.5320765973   -1.4576738924    4.4205997642   -1.6500256779
  8         -5.5322192721   -1.4578833190    4.4204056023   -1.6500032912
  9         -5.5322765240   -1.4579657561    4.4203308649   -1.6499954152
 10         -5.5322995843   -1.4579982639    4.4203020904   -1.6499927055
 11         -5.5323088576   -1.4580111317    4.4202909828   -1.6499917962
 12         -5.5323125859   -1.4580162439    4.4202866844   -1.6499915030
 13         -5.5323140836   -1.4580182832    4.4202850159   -1.6499914143
 14         -5.5323146847   -1.4580191002    4.4202843659   -1.6499913905
 15         -5.5323149258   -1.4580194290    4.4202841117   -1.6499913858
 16         -5.5323150224   -1.4580195619    4.4202840119   -1.6499913859
Atom SCF converged after  16 iterations to a total energy of     -5.53231502

Determining parallel strategy ...
... using space-filling curve
... NGWF load balancing: max     64;  min     64;  average     64
... Projector load balancing: max    128;  min    128;  average    128
... done
Calculating Ewald energy ...
              Ewald: real-space energy =    9952.144771
        Ewald: reciprocal-space energy =      18.090377
         Ewald: (sum_charge)**2 Energy =    9594.867932
         Ewald: (sum_charge**2) Energy =     758.540913
                          Ewald Energy =    -383.173696
Basis initialisation ...... NGWF spheres initialised
... Projector spheres initialised
... NGWF tight boxes initialised
... Projector tight boxes initialised
... Tight-boxes gathered
... NGWF basis size (local,global):     692532  27889120
... PAW projector initialisation
... done

============================= Charge Augmentation ==============================
                           Aug box size:   11 x  11 x  11
================================================================================

========================== Sparse matrix information ===========================
                        Overlap matrix filling:  26.88%
                        Density kernel filling: 100.00%
              NGWF-Proj overlap matrix filling:   5.47%
                    Aug Overlap matrix filling:  27.03%
                    Hamiltonian matrix filling:  27.03%
                  NGWF diagonal matrix filling:   0.16%
                             KS matrix filling: 100.00% 
                           KSKS matrix filling: 100.00% 
================================================================================

Sparse matrix initialisation ... done
NGWF initialisation ...... done
============ Calculation of NGWF S^-1 using Hotelling algorithm ================ 
         Iteration  |  Frobenius norm and Maximum abs value    (of I-S*S_n^-1)   
               1       0.48710773E+02     0.97112179E+00
               2       0.47269141E+02     0.94433897E+00
               3       0.45200822E+02     0.89621619E+00
               4       0.42621631E+02     0.81715226E+00
               5       0.39582263E+02     0.71415884E+00
               6       0.36156429E+02     0.66204916E+00
               7       0.32718317E+02     0.61732291E+00
               8       0.29367822E+02     0.57771151E+00
               9       0.25524064E+02     0.52710860E+00
              10       0.20527820E+02     0.44468523E+00
              11       0.14191807E+02     0.32007572E+00
              12       0.74838967E+01     0.17137418E+00
              13       0.24307780E+01     0.53473982E-01
              14       0.30560521E+00     0.61065508E-02
              15       0.56952729E-02     0.98152600E-04
              16       0.26159071E-05     0.32772091E-07
              17       0.85343909E-12     0.93258734E-14
================================================================================
Calculating core density ...
================================= Core Density =================================
               Core den box size:   21 x  21 x  21
================================================================================
 ... done
Up spin density kernel initialisation ...... done

Writing density kernel to file "5.500496_GO_manual_4x64graphite.dkn" ... done

>>> Optimising kernel for current NGWFs:

--------------------------- Ensemble-DFT optimisation --------------------------
Running ScaLAPACK on   40 processor(s).

--------------------------------------------------------------------------------
  Iter                              Commutator    Free_energy(A=E-TS)     DeltaA
#    0                          0.000052024516   -3677.25575808524127  -3.68E+03

Step                       =       0.381966011250
Energy                     =   -3677.255727256071
Entropy (-TS)              =      -0.000030829197
Free energy (A=E-TS)       =   -3677.255758085241
Est. 0K Energy 0.5*(E+A)   =   -3677.255742670656
Residual Non-orthogonality =       0.000000000000
Residual N_electrons       =       0.000000000026

Spin          Integrated_Ne            Fermi_level     Delta_Fermi_level
   1      2559.999999998017         0.013282289643              1.33E-02

                           Spin 1          
     Orb      H-eigenvalues     Occupancies
       1 |    -0.6991080599    1.0000000000 | 
                          ------
    1276 |    -0.0227983908    0.9999887303 | 
    1277 |    -0.0227975914    0.9999887274 | 
    1278 |    -0.0227866951    0.9999886886 | 
    1279 |    -0.0227864907    0.9999886878 | 
    1280 |    -0.0227798137    0.9999886640 | 
                 - Gap at zero temperature -
    1281 |     0.0494893515    0.0000108288 | 
    1282 |     0.0494900070    0.0000108266 | 
    1283 |     0.0494904500    0.0000108251 | 
    1284 |     0.0494909194    0.0000108235 | 
    1285 |     0.0494914898    0.0000108215 | 
                          ------
    2560 |     0.8325771667    0.0000000000 | 

                       |  Abs_value |  Threshold | Converged
     Delta_Free_energy |   3.68E+03 |   1.00E-06 |        No
     Delta_Energy      |   3.68E+03 |   1.00E-04 |        No
     Delta_Entropy     |   3.08E-05 |   1.00E-04 |       Yes
     Commutator        |   5.20E-05 |   1.00E-05 |        No
     Delta_Fermi_level |   1.33E-02 |   1.00E-03 |        No

  Line search of the free energy minimum:
  Step_type        Step             Free_energy   Predicted_free_energy
.   Initial    0.000000    -3677.25575808524127
.    Trial1    0.381966    -3677.25877646008757
.    Trial2    0.618034    -3677.25974458027713
. Quadratic    0.833392    -3677.26003453284420    -3677.26002983305943

--------------------------------------------------------------------------------
  Iter                              Commutator    Free_energy(A=E-TS)     DeltaA
#    1                          0.000020604930   -3677.26003453284420  -4.28E-03

Step                       =       0.833392291886
Energy                     =   -3677.260003610269
Entropy (-TS)              =      -0.000030922573
Free energy (A=E-TS)       =   -3677.260034532844
Est. 0K Energy 0.5*(E+A)   =   -3677.260019071557
Residual Non-orthogonality =       0.000000000000
Residual N_electrons       =      -0.000000000003

Spin          Integrated_Ne            Fermi_level     Delta_Fermi_level
   1      2560.000000000947         0.003596939772             -9.69E-03

                           Spin 1          
     Orb      H-eigenvalues     Occupancies
       1 |    -0.7130722595    1.0000000000 | 
                          ------
    1276 |    -0.0325690110    0.9999890297 | 
    1277 |    -0.0325678857    0.9999890258 | 
    1278 |    -0.0325649557    0.9999890156 | 
    1279 |    -0.0325632259    0.9999890096 | 
    1280 |    -0.0325617221    0.9999890044 | 
                 - Gap at zero temperature -
    1281 |     0.0396944771    0.0000112099 | 
    1282 |     0.0396966116    0.0000112024 | 
    1283 |     0.0396975834    0.0000111989 | 
    1284 |     0.0396984718    0.0000111958 | 
    1285 |     0.0396991286    0.0000111935 | 
                          ------
    2560 |     0.8182373459    0.0000000000 | 

                       |  Abs_value |  Threshold | Converged
     Delta_Free_energy |   4.28E-03 |   1.00E-06 |        No
     Delta_Energy      |   4.28E-03 |   1.00E-04 |        No
     Delta_Entropy     |   9.34E-08 |   1.00E-04 |       Yes
     Commutator        |   2.06E-05 |   1.00E-05 |        No
     Delta_Fermi_level |   9.69E-03 |   1.00E-03 |        No

  Line search of the free energy minimum:
  Step_type        Step             Free_energy   Predicted_free_energy
.   Initial    0.000000    -3677.26003453284420
.    Trial1    0.833392    -3677.25860738166193
.    Trial2    0.318328    -3677.26048008291036
. Quadratic    0.274988    -3677.26049147636877    -3677.26049143226282

--------------------------------------------------------------------------------
  Iter                              Commutator    Free_energy(A=E-TS)     DeltaA
#    2                          0.000007393669   -3677.26049147636877  -4.57E-04

Step                       =       0.274987587043
Energy                     =   -3677.260460571775
Entropy (-TS)              =      -0.000030904598
Free energy (A=E-TS)       =   -3677.260491476369
Est. 0K Energy 0.5*(E+A)   =   -3677.260476024072
Residual Non-orthogonality =       0.000000000000
Residual N_electrons       =       0.000000000005

Spin          Integrated_Ne            Fermi_level     Delta_Fermi_level
   1      2559.999999998478         0.003095026492             -5.02E-04

                           Spin 1          
     Orb      H-eigenvalues     Occupancies
       1 |    -0.7138186226    1.0000000000 | 
                          ------
    1276 |    -0.0330272592    0.9999888774 | 
    1277 |    -0.0330262742    0.9999888739 | 
    1278 |    -0.0330235721    0.9999888644 | 
    1279 |    -0.0330220988    0.9999888592 | 
    1280 |    -0.0330206639    0.9999888542 | 
                 - Gap at zero temperature -
    1281 |     0.0392393867    0.0000110454 | 
    1282 |     0.0392413497    0.0000110385 | 
    1283 |     0.0392420167    0.0000110362 | 
    1284 |     0.0392430154    0.0000110327 | 
    1285 |     0.0392434038    0.0000110314 | 
                          ------
    2560 |     0.8174752721    0.0000000000 | 

                       |  Abs_value |  Threshold | Converged
     Delta_Free_energy |   4.57E-04 |   1.00E-06 |        No
     Delta_Energy      |   4.57E-04 |   1.00E-04 |        No
     Delta_Entropy     |   1.80E-08 |   1.00E-04 |       Yes
     Commutator        |   7.39E-06 |   1.00E-05 |       Yes
     Delta_Fermi_level |   5.02E-04 |   1.00E-03 |       Yes

  Line search of the free energy minimum:
  Step_type        Step             Free_energy   Predicted_free_energy
.   Initial    0.000000    -3677.26049147636877
.    Trial1    0.274988    -3677.26054298899180
.    Trial2    0.551918    -3677.26054495876906
. Quadratic    0.424345    -3677.26055027050961    -3677.26055027291432

--------------------------------------------------------------------------------
  Iter                              Commutator    Free_energy(A=E-TS)     DeltaA
#    3                          0.000004281432   -3677.26055027050961  -5.88E-05

Step                       =       0.424344503338
Energy                     =   -3677.260519391023
Entropy (-TS)              =      -0.000030879482
Free energy (A=E-TS)       =   -3677.260550270510
Est. 0K Energy 0.5*(E+A)   =   -3677.260534830766
Residual Non-orthogonality =       0.000000000000
Residual N_electrons       =      -0.000000000004

Spin          Integrated_Ne            Fermi_level     Delta_Fermi_level
   1      2560.000000001608         0.002531550752             -5.63E-04

                           Spin 1          
     Orb      H-eigenvalues     Occupancies
       1 |    -0.7146434141    1.0000000000 | 
                          ------
    1276 |    -0.0335788511    0.9999888355 | 
    1277 |    -0.0335779863    0.9999888325 | 
    1278 |    -0.0335755352    0.9999888238 | 
    1279 |    -0.0335743044    0.9999888195 | 
    1280 |    -0.0335729543    0.9999888147 | 
                 - Gap at zero temperature -
    1281 |     0.0386934551    0.0000109844 | 
    1282 |     0.0386952626    0.0000109781 | 
    1283 |     0.0386956485    0.0000109768 | 
    1284 |     0.0386967544    0.0000109729 | 
    1285 |     0.0386968992    0.0000109724 | 
                          ------
    2560 |     0.8166460717    0.0000000000 | 

                       |  Abs_value |  Threshold | Converged
     Delta_Free_energy |   5.88E-05 |   1.00E-06 |        No
     Delta_Energy      |   5.88E-05 |   1.00E-04 |       Yes
     Delta_Entropy     |   2.51E-08 |   1.00E-04 |       Yes
     Commutator        |   4.28E-06 |   1.00E-05 |       Yes
     Delta_Fermi_level |   5.63E-04 |   1.00E-03 |       Yes

  Line search of the free energy minimum:
  Step_type        Step             Free_energy   Predicted_free_energy
.   Initial    0.000000    -3677.26055027050961
.    Trial1    0.424345    -3677.26056821313750
.    Trial2    0.644225    -3677.26055435545823
. Quadratic    0.341508    -3677.26056933554855    -3677.26056933479549

--------------------------------------------------------------------------------
  Iter                              Commutator    Free_energy(A=E-TS)     DeltaA
#    4                          0.000002612026   -3677.26056933554855  -1.91E-05

Step                       =       0.341508142008
Energy                     =   -3677.260538469609
Entropy (-TS)              =      -0.000030865937
Free energy (A=E-TS)       =   -3677.260569335549
Est. 0K Energy 0.5*(E+A)   =   -3677.260553902579
Residual Non-orthogonality =       0.000000000000
Residual N_electrons       =      -0.000000000003

Spin          Integrated_Ne            Fermi_level     Delta_Fermi_level
   1      2560.000000001159         0.002272051250             -2.59E-04

                           Spin 1          
     Orb      H-eigenvalues     Occupancies
       1 |    -0.7150255474    1.0000000000 | 
[...]
 C   275 -- C   555       -0.10      5.37000
 C   274 -- C   554       -0.10      5.37000
 C   273 -- C   553       -0.10      5.37000
 C   272 -- C   552       -0.10      5.37000
 C   271 -- C   551       -0.10      5.37000
 C   270 -- C   550       -0.10      5.37000
 C   269 -- C   549       -0.10      5.37000
 C   268 -- C   548       -0.10      5.37000
 C   267 -- C   547       -0.10      5.37000
 C   266 -- C   546       -0.10      5.37000
 C   130 -- C   465       -0.09      5.37000
 C   129 -- C   464       -0.09      5.37000
 C   128 -- C   463       -0.09      5.37000
 C   127 -- C   462       -0.09      5.37000
 C   126 -- C   461       -0.09      5.37000
 C   240 -- C   525       -0.10      5.37000
 C   239 -- C   524       -0.10      5.37000
 C   238 -- C   523       -0.10      5.37000
 C   237 -- C   522       -0.10      5.37000
 C   236 -- C   521       -0.10      5.37000
 C    23 -- C   478       -0.09      5.37202
 C    49 -- C   469       -0.09      5.37202
 C    48 -- C   468       -0.09      5.37202
 C    47 -- C   467       -0.09      5.37202
 C    22 -- C   477       -0.09      5.37202
 C    46 -- C   466       -0.09      5.37202
 C    21 -- C   476       -0.09      5.37202
 C    25 -- C   480       -0.09      5.37202
 C    24 -- C   479       -0.09      5.37202
 C    50 -- C   470       -0.09      5.37202
 C    24 -- C   449       -0.09      5.37202
 C     6 -- C   416       -0.09      5.37202
 C    23 -- C   448       -0.09      5.37202
 C    22 -- C   447       -0.09      5.37202
 C    10 -- C   470       -0.09      5.37202
 C     5 -- C   450       -0.09      5.37202
 C    21 -- C   446       -0.09      5.37202
 C    10 -- C   420       -0.09      5.37202
 C     9 -- C   469       -0.09      5.37202
 C     9 -- C   419       -0.09      5.37202
 C     8 -- C   468       -0.09      5.37202
 C     4 -- C   449       -0.09      5.37202
 C     8 -- C   418       -0.09      5.37202
 C     2 -- C   447       -0.09      5.37202
 C     7 -- C   467       -0.09      5.37202
 C     7 -- C   417       -0.09      5.37202
 C     1 -- C   446       -0.09      5.37202
 C     6 -- C   466       -0.09      5.37202
 C    25 -- C   450       -0.09      5.37202
 C     3 -- C   448       -0.09      5.37202
 C   285 -- C   580       -0.09      5.37202
 C   284 -- C   579       -0.09      5.37202
 C   283 -- C   578       -0.09      5.37202
 C   282 -- C   577       -0.09      5.37202
 C   281 -- C   576       -0.09      5.37202
 C   260 -- C   605       -0.09      5.37202
 C   259 -- C   604       -0.09      5.37202
 C   258 -- C   603       -0.09      5.37202
 C   257 -- C   602       -0.09      5.37202
 C   256 -- C   601       -0.09      5.37202
 C   219 -- C   569       -0.09      5.37202
 C   218 -- C   568       -0.09      5.37202
 C   217 -- C   567       -0.09      5.37202
 C   216 -- C   566       -0.09      5.37202
 C    11 -- C   331       -0.09      5.37202
 C   205 -- C   550       -0.09      5.37202
 C   204 -- C   549       -0.09      5.37202
 C   203 -- C   548       -0.09      5.37202
 C   202 -- C   547       -0.09      5.37202
 C   201 -- C   546       -0.09      5.37202
 C    15 -- C   335       -0.09      5.37202
 C    30 -- C   355       -0.09      5.37202
 C    30 -- C   325       -0.09      5.37202
 C    14 -- C   334       -0.09      5.37202
 C    29 -- C   354       -0.09      5.37202
 C    29 -- C   324       -0.09      5.37202
 C   260 -- C   550       -0.09      5.37202
 C   259 -- C   549       -0.09      5.37202
 C    28 -- C   353       -0.09      5.37202
 C   258 -- C   548       -0.09      5.37202
 C   257 -- C   547       -0.09      5.37202
 C   256 -- C   546       -0.09      5.37202
 C    28 -- C   323       -0.09      5.37202
 C    27 -- C   352       -0.09      5.37202
 C    13 -- C   333       -0.09      5.37202
 C   250 -- C   540       -0.09      5.37202
 C   249 -- C   539       -0.09      5.37202
 C   248 -- C   538       -0.09      5.37202
 C   247 -- C   537       -0.09      5.37202
 C   246 -- C   536       -0.09      5.37202
 C    27 -- C   322       -0.09      5.37202
 C    26 -- C   351       -0.09      5.37202
 C    55 -- C   335       -0.09      5.37202
 C    26 -- C   321       -0.09      5.37202
 C    54 -- C   334       -0.09      5.37202
 C    12 -- C   332       -0.09      5.37202
 C    53 -- C   333       -0.09      5.37202
 C   230 -- C   580       -0.09      5.37202
 C   230 -- C   525       -0.09      5.37202
 C   229 -- C   579       -0.09      5.37202
 C   229 -- C   524       -0.09      5.37202
 C   228 -- C   578       -0.09      5.37202
 C    52 -- C   332       -0.09      5.37202
 C   228 -- C   523       -0.09      5.37202
 C   227 -- C   577       -0.09      5.37202
 C   227 -- C   522       -0.09      5.37202
 C   226 -- C   576       -0.09      5.37202
 C   226 -- C   521       -0.09      5.37202
 C    51 -- C   331       -0.09      5.37202
 C   220 -- C   570       -0.09      5.37202
 C   220 -- C   515       -0.09      5.37202
 C   219 -- C   514       -0.09      5.37202
 C   218 -- C   513       -0.09      5.37202
 C   217 -- C   512       -0.09      5.37202
 C   216 -- C   511       -0.09      5.37202
 C    95 -- C   425       -0.09      5.37202
 C    95 -- C   365       -0.09      5.37202
 C    94 -- C   424       -0.09      5.37202
 C    94 -- C   364       -0.09      5.37202
 C    93 -- C   423       -0.09      5.37202
 C   195 -- C   540       -0.09      5.37202
 C   195 -- C   500       -0.09      5.37202
 C    93 -- C   363       -0.09      5.37202
 C   194 -- C   539       -0.09      5.37202
 C    92 -- C   422       -0.09      5.37202
 C   194 -- C   499       -0.09      5.37202
 C   193 -- C   538       -0.09      5.37202
 C   193 -- C   498       -0.09      5.37202
 C    92 -- C   362       -0.09      5.37202
 C   192 -- C   537       -0.09      5.37202
 C    91 -- C   421       -0.09      5.37202
 C   192 -- C   497       -0.09      5.37202
 C   191 -- C   536       -0.09      5.37202
 C   191 -- C   496       -0.09      5.37202
 C    91 -- C   361       -0.09      5.37202
 C    85 -- C   355       -0.09      5.37202
 C   180 -- C   515       -0.09      5.37202
 C    40 -- C   365       -0.09      5.37202
 C    84 -- C   354       -0.09      5.37202
 C   179 -- C   514       -0.09      5.37202
 C    83 -- C   353       -0.09      5.37202
 C   178 -- C   513       -0.09      5.37202
 C   177 -- C   512       -0.09      5.37202
 C    82 -- C   352       -0.09      5.37202
 C    39 -- C   364       -0.09      5.37202
 C   176 -- C   511       -0.09      5.37202
 C    81 -- C   351       -0.09      5.37202
 C    38 -- C   363       -0.09      5.37202
 C    37 -- C   362       -0.09      5.37202
 C    36 -- C   361       -0.09      5.37202
 C    65 -- C   395       -0.09      5.37202
 C    65 -- C   345       -0.09      5.37202
 C    64 -- C   394       -0.09      5.37202
 C    64 -- C   344       -0.09      5.37202
 C    63 -- C   393       -0.09      5.37202
 C    63 -- C   343       -0.09      5.37202
 C    62 -- C   392       -0.09      5.37202
 C    62 -- C   342       -0.09      5.37202
 C    61 -- C   391       -0.09      5.37202
 C    61 -- C   341       -0.09      5.37202
 C   120 -- C   395       -0.09      5.37202
 C    55 -- C   385       -0.09      5.37202
 C   119 -- C   394       -0.09      5.37202
 C   118 -- C   393       -0.09      5.37202
 C   117 -- C   392       -0.09      5.37202
 C    54 -- C   384       -0.09      5.37202
 C   116 -- C   391       -0.09      5.37202
 C    53 -- C   383       -0.09      5.37202
 C    52 -- C   382       -0.09      5.37202
 C    51 -- C   381       -0.09      5.37202
 C   150 -- C   440       -0.09      5.37202
 C   149 -- C   439       -0.09      5.37202
 C   148 -- C   438       -0.09      5.37202
 C   147 -- C   437       -0.09      5.37202
 C   146 -- C   436       -0.09      5.37202
 C   135 -- C   460       -0.09      5.37202
 C   134 -- C   459       -0.09      5.37202
 C   133 -- C   458       -0.09      5.37202
 C   132 -- C   457       -0.09      5.37202
 C   131 -- C   456       -0.09      5.37202
 C   106 -- C   436       -0.09      5.37202
 C   106 -- C   376       -0.09      5.37202
 C    80 -- C   410       -0.09      5.37202
 C    79 -- C   409       -0.09      5.37202
 C    78 -- C   408       -0.09      5.37202
 C    77 -- C   407       -0.09      5.37202
 C    76 -- C   406       -0.09      5.37202
 C   135 -- C   410       -0.09      5.37202
 C   134 -- C   409       -0.09      5.37202
 C   133 -- C   408       -0.09      5.37202
 C   132 -- C   407       -0.09      5.37202
 C   131 -- C   406       -0.09      5.37202
 C   110 -- C   440       -0.09      5.37202
 C   110 -- C   380       -0.09      5.37202
 C   109 -- C   439       -0.09      5.37202
 C   109 -- C   379       -0.09      5.37202
 C   108 -- C   438       -0.09      5.37202
 C   108 -- C   378       -0.09      5.37202
 C   107 -- C   437       -0.09      5.37202
 C   107 -- C   377       -0.09      5.37202
 C   215 -- C   635       -0.09      5.38000
 C   214 -- C   634       -0.09      5.38000
 C   213 -- C   633       -0.09      5.38000
 C   212 -- C   632       -0.09      5.38000
 C   211 -- C   631       -0.09      5.38000
 C   190 -- C   620       -0.09      5.38000
 C   189 -- C   619       -0.09      5.38000
 C   188 -- C   618       -0.09      5.38000
 C   187 -- C   617       -0.09      5.38000
 C   186 -- C   616       -0.09      5.38000
 C   175 -- C   595       -0.09      5.38000
 C   174 -- C   594       -0.09      5.38000
 C   173 -- C   593       -0.09      5.38000
 C   172 -- C   592       -0.09      5.38000
 C   171 -- C   591       -0.09      5.38000
 C   245 -- C   640       -0.09      5.38000
 C   244 -- C   639       -0.09      5.38000
 C   243 -- C   638       -0.09      5.38000
 C   242 -- C   637       -0.09      5.38000
 C   241 -- C   636       -0.09      5.38000
==================================================


=================== Orbital energy and occupancy information ===================

      Total number of orbitals:    2560
        Occupancy sum (kernel):    1280.000000001
   Occupancy sum (eigenvalues):    1280.000000001
                 HOMO-LUMO gap:       0.000000099 Eh
                 Mid-gap level:       0.129319102 Eh

                        Orbital | Energy (Eh) | Occupancy
                            1    -0.620377422   1.0000000
                        .......   ...........   .........
                         1272     0.056912883   0.9999898
                         1273     0.056969652   0.9999896
                         1274     0.056970296   0.9999896
                         1275     0.057025633   0.9999894
                         1276     0.057312018   0.9999884
                         1277     0.057314070   0.9999884
                         1278     0.057434291   0.9999879
                         1279     0.057434922   0.9999879
                         1280     0.057490459   0.9999877
                         1281     0.129319053   0.0000114
                        ....... -- gap at 0K -- .........
                         1282     0.129319152   0.0000114
                         1283     0.129319286   0.0000114
                         1284     0.129320718   0.0000114
                         1285     0.129321396   0.0000114
                         1286     0.129575872   0.0000105
                         1287     0.129576103   0.0000105
                         1288     0.129576333   0.0000105
                         1289     0.129577640   0.0000105
                         1290     0.129578326   0.0000105
                         1291     0.129778422   0.0000099
                        .......   ...........   .........
                         2560     0.975055139   0.0000000

================================================================================

===================== Writing canonical molecular orbitals =====================
| Orbital  Energy (eV)  Norm     |
| HOMO      3.51895048  1.000000 | Writing "5.500496_GO_manual_4x64graphite_HOMO.cube" ... done
Writing "5.500496_GO_manual_4x64graphite_HOMO.dx" ... done
| LUMO      3.51895319  1.000000 | Writing "5.500496_GO_manual_4x64graphite_LUMO.cube" ... done
Writing "5.500496_GO_manual_4x64graphite_LUMO.dx" ... done
================================================================================
 
===================== Density of States (DOS) calculation ======================
Writing "5.500496_GO_manual_4x64graphite_DOS.txt" ...  done
================================================================================
 
Writing bands to file "5.500496_GO_manual_4x64graphite.val_bands" ... done
 
================ Projected Density of States (pDOS) calculation ================
 
Constructing AM resolved functions  ...... done
Writing NGWF plot files in formats: CUBE DX ...  done
 
Performing overlap integrals ...  done
 
Computing pDOS weights ...  done
 
All bands spilling parameter =   2.66 %
Occupancy-weighted spilling parameter =   1.03 %
 
 => Outputting data for OptaDOS <=
 
Writing pDOS weights to file "5.500496_GO_manual_4x64graphite.val_pdos_bin" ... done
 
Writing band gradients to file "5.500496_GO_manual_4x64graphite.val_dome_bin" ... done
 
Writing Castep output cell file to "5.500496_GO_manual_4x64graphite-out.cell" ... done
 
 => Computing Gaussian smeared pDOS <= 
Writing "5.500496_GO_manual_4x64graphite_PDOS.txt" ...  done
 
 => Computing Occupancy-weighted Gaussian smeared pDOS <= 
Writing "5.500496_GO_manual_4x64graphite_occ_PDOS.txt" ...  done
  => Band centres: 
 S band centre of group 1:  -15.629687 eV
 P band centre of group 1:   -8.510449 eV
  Band centres done. <=
  => Integrated number of electrons in each AM band: 
 S num electrons of group 1:  574.310340
 P num electrons of group 1: 1959.331166
  Integrated number of electrons done. <=
================================================================================

------------------------------ TIMING INFORMATION ------------------------------
AVERAGE TIME:    2251.385s on     40 node(s)                                    
TOTAL TIME:      2251.385s on     40 node(s)                                    
================= AVERAGE TIMINGS FROM ALL NODES (CUMULATIVE) ==================
|| TAG                                    #calls    cpu time   %total  Gflops ||
|| work_imbalance                       :     1        0.00s   0.000%  ------ ||
|| paw_tcore_hartree_on_grid            :     1        0.01s   0.000%  ------ ||
|| paw_tcore_density                    :     1        0.01s   0.001%  ------ ||
|| paw_sphere_density_on_grid           :     1        0.01s   0.001%  ------ ||
|| sparse_set_to_garbage                :   135        0.02s   0.001%  ------ ||
|| paw_dij_hartree                      :   267        0.03s   0.001%  ------ ||
|| basis_extract_function_from_box      :  1536        0.07s   0.003%  ------ ||
|| pseudo_make_structure_factor         :     1        0.08s   0.004%  ------ ||
|| paw_species_calc_proj_prec_mat       :     1        0.12s   0.005%  ------ ||
|| paw_dataset_init                     :     1        0.15s   0.007%  ------ ||
|| density_init_guess_real              :     1        0.17s   0.008%  ------ ||
|| ngwfs_initialise_from_radial         :     2        0.66s   0.029%  ------ ||
|| restart_kernel_write                 :    13        0.67s   0.030%  ------ ||
|| sparse_init                          :     1        0.71s   0.032%  ------ ||
|| dense_normal_eigensolve              :     1        1.01s   0.045%  ------ ||
|| hartree_on_grid                      :   202        1.97s   0.087%  ------ ||
|| projectors_init_fftbox_recip         :   121        2.41s   0.107%  ------ ||
|| fourier_apply_box_pair               :  2272        3.75s   0.167% 561.358 ||
|| basis_copy_function_to_box           : 19200        4.15s   0.185%  ------ ||
|| augmentation_screen_dij              :   207        4.44s   0.197%  ------ ||
|| sparse_trace                         :  2414        6.50s   0.289%  ------ ||
|| ewald_calculate_energy               :     1        6.57s   0.292%  ------ ||
|| sparse_embed_hotelling_invert_embed  :    23        6.66s   0.296%  ------ ||
|| sw_init                              :     1        6.73s   0.299%  ------ ||
|| ngwf_gradient_coeffs                 :    12        7.41s   0.329%  ------ ||
|| cell_grid_deposit_box_real           : 26032       12.95s   0.575%  ------ ||
|| cell_grid_extract_box_real           :  8060       17.44s   0.775%  ------ ||
|| paw_dij_xc                           :   267       18.24s   0.810%  ------ ||
|| fourier_apply_cell_backward          :  6233       19.82s   0.880%  62.613 ||
|| fourier_apply_cell_forward           :  5830       20.07s   0.891%  57.837 ||
|| aug_nonlocal_mat                     :   255       22.96s   1.020%  ------ ||
|| density_fftbox_deposit_to_cell       : 12928       25.08s   1.114%  ------ ||
|| function_ops_brappd_ketppd           :    48       27.15s   1.206%  ------ ||
|| projectors_func_ovlp_box             :    24       27.21s   1.208%  ------ ||
|| augmentation_density_on_grid         :   202       31.41s   1.395%  ------ ||
|| hamiltonian_energy_components        :     3       35.48s   1.576%  ------ ||
|| integrals_kinetic                    :    23       49.07s   2.180%  ------ ||
|| eigenstates_pdos                     :     1       50.55s   2.245%  ------ ||
|| eigenstates_calculate                :     1       55.59s   2.469%  ------ ||
|| dense_eigensolve                     :   175       76.71s   3.407%  ------ ||
|| xc_energy_potential                  :   201       78.89s   3.504%  ------ ||
|| nlxc_vdw_energy                      :   402       82.24s   3.653%  ------ ||
|| sparse_product                       :  2468       86.54s   3.844%  ------ ||
|| potential_apply_to_ngwf_batch        :   248       92.98s   4.130%  ------ ||
|| projectors_gradient_batch            :    48       96.84s   4.301%  ------ ||
|| basis_dot_function_with_box          : 3.667M      98.76s   4.387%  ------ ||
|| properties_calculate                 :     1      111.16s   4.937%  ------ ||
|| restart_ngwfs_tightbox_output        :    11      124.94s   5.550%  ------ ||
|| integrals_locpot_mat_els_batch       :   248      133.22s   5.917%  ------ ||
|| projectors_grad_precond_batch        :    48      144.01s   6.397%  ------ ||
|| edft_diag_ngwf_ham                   :   174      183.07s   8.131%  ------ ||
|| fourier_apply_box                    : 60768      187.96s   8.349% 978.061 ||
|| integrals_locpot_dbl_grid            :    62      226.96s  10.081%  ------ ||
|| density_fftbox_interpolate_multiply  : 12928      250.68s  11.134%  ------ ||
|| ngwf_gradient_build_batch            :    48      276.87s  12.298%  ------ ||
|| basis_add_function_to_box            : 11.01M     287.52s  12.771%  ------ ||
|| density_batch_interp_deposit         :   808      301.57s  13.395%  ------ ||
|| edft_apply_smearing_operator         :   174      363.58s  16.149%  ------ ||
|| density_batch_row_sums               :   808      384.22s  17.066%  ------ ||
|| ngwf_gradient_batch                  :    48      393.93s  17.497%  ------ ||
|| ngwf_gradient_lnv                    :    12      409.38s  18.183%  ------ ||
|| density_on_dbl_grid                  :   202      697.59s  30.985%  ------ ||
|| hamiltonian_lhxc_calculate           :   197      792.22s  35.188%  ------ ||
|| edft_calculate                       :    12     1371.72s  60.928%  ------ ||
|| ngwf_cg_optimise                     :     1     2115.91s  93.983%  ------ ||
|| total_time                           :     1     2251.38s 100.000%  ------ ||
================================================================================
Overhead of generating timer report: 
- 0 ms averaging over threads,
- 5 ms ensuring consistency across MPI ranks,
- 0 ms printing in order.

Job completed: 09-03-2020 13:45 (-0000)

