 +---------------------------------------------------------------+
 |                                                               |
 |        ####### #     # ####### ####### ####### ######         |
 |        #     # ##    # #          #    #       #     #        |
 |        #     # # #   # #          #    #       #     #        |
 |        #     # #  #  # #####      #    #####   ######         |
 |        #     # #   # # #          #    #       #              |
 |        #     # #    ## #          #    #       #              |
 |        ####### #     # #######    #    ####### #              |
 |                                                               |
 |        Linear-Scaling Ab Initio Total Energy Program          |
 |                                                               |
 |          Release for academic collaborators of ODG            |
 |                                             Version 5.3.2.12  |
 |                                                               |
 +---------------------------------------------------------------+
 |                                                               |
 |  Authors:                                                     |
 |  Jacek Dziedzic, Peter D. Haynes, Nicholas D. M. Hine,        |
 |  Arash. A. Mostofi, Mike C. Payne and Chris-Kriton Skylaris   |
 |                                                               |
 |  Contributors:                                                |
 |  J. Aarons, L. Andrinopoulos, P. W. Avraam, R. A. Bell,       |
 |  A. Bhandari, G. A. Bramley, R. J. Charlton, S. J. Clark,     |
 |  R. J. Clements, G. C. Constantinescu, F. Corsetti,           |
 |  N. Corsini, O. Dieguez, S. M. M. Dubois, K. K. B. Duff,      |
 |  J. M. Escartin, A. Greco, H. Helal, Q. O. Hill, L. P. Lee,   |
 |  J.-H. Li, E. B. Linscott, G. Moynihan, D. D. O`Regan,        |
 |  O. K. Okan, M. J. S. Phipps, C. J. Pickard,                  |
 |  J. C. A. Prentice, M. I. J. Probert, L. E. Ratcliff,         |
 |  M. Robinson, A. Ruiz Serrano, J. S. Spencer, E. W. Tait,     |
 |  G. Teobaldi, D. Turban, V. Vitale, K. A. Wilkinson,          |
 |  C. Weber, J. C. Womack, N. Yeung and T. J. Zuehlsdorff       |
 |                                                               |
 |                                   Copyright (c) 2004-2020     |
 |                                                               |
 |  Please cite:                                                 |
 |  "Introducing ONETEP: Linear-scaling density functional       |
 |   simulations on parallel computers".                         |
 |   C.-K. Skylaris, P. D. Haynes, A. A. Mostofi, M. C. Payne.   |
 |   J. Chem. Phys. 122 084119 (2005).                           |
 |                                                               |
 |          in all publications arising from your use of ONETEP. |
 |                                                               |
 +---------------------------------------------------------------+
 |                                                               |
 |   ONETEP is based on developments described in the following  |
 |   publications:                                               |
 |                                                               |
 |  "Nonorthogonal generalized Wannier function pseudopotential  |
 |   plane-wave method".                                         |
 |   C.-K. Skylaris, A. A. Mostofi, P. D. Haynes, O. Dieguez,    |
 |   M. C. Payne.                                                |
 |   Phys. Rev. B 66 035119 (2002).                              |
 |                                                               |
 |  "Preconditioned iterative minimization for linear-scaling    |
 |   electronic structure calculations".                         |
 |   A. A. Mostofi, P. D. Haynes, C.-K. Skylaris, M. C. Payne.   |
 |   J. Chem. Phys. 119(17), pp.8842-8848 (2003).                |
 |                                                               |
 |  "Total-energy calculations on a real space grid with         |
 |   localized functions and a plane-wave basis".                |
 |   A. A. Mostofi, C.-K. Skylaris, P. D. Haynes, M. C. Payne.   |
 |   Comput. Phys. Commun. 147, pp.788-802 (2002).               |
 |                                                               |
 |  "Accurate kinetic energy evaluation in electronic structure  |
 |   calculations with localized functions on real space grids"  |
 |   C.-K. Skylaris, A. A. Mostofi, P. D. Haynes, C. J. Pickard, |
 |   M. C. Payne.                                                |
 |   Comput. Phys. Commun. 140, pp.315-322 (2001).               |
 |                                                               |
 |  "Accurate ionic forces and geometry optimization in linear-  |
 |   scaling density-functional theory with local orbitals"      |
 |   N. D. M. Hine, M. Robinson, P. D. Haynes, C.-K. Skylaris,   |
 |   M. C. Payne, and A. A. Mostofi.                             |
 |   Phys. Rev. B 83 195102 (2011).                              |
 |                                                               |
 +---------------------------------------------------------------+

Job started: 26-02-2020 03:19 (-0000)
 
Reading parameters from file "3.1930128_GO_manual_4x64graphite.dat" ...

WARNING: "cutoff_energy" not specified, but "psinc_spacing" specified.
         Using the latter to set the KE cutoff energy to  732.32021eV,
         thus *overriding* the default.

... done

If your calculation crashes here, before "Checking processes and threads..."
is displayed, then your stack size is insufficient.
If so, use "ulimit -s unlimited" at runtime.
You can disable this check with "check_stack_size F".

Checking processes and threads...
   Determining the default number of threads...
      No default threads set at compilation time: defaulting to 1.
      OpenMP library call suggests 4 threads.
      Hybrid MPI-OpenMP compilation detected.
      Number of MPI processes > 1.
      OMP_NUM_THREADS environment variable present and
      its value matches the one obtained from the OpenMP library call.
      Using this value as default.
      Default threads: 4
      Default applies to threads_max and threads_num_fftboxes.
      Settings in the input file override this default.
   ... done

   Running with 40 MPI processes.
   There are 10 MPI processes running on the same node as the root process.
   Each MPI process is using: 
               1 threads for simulation cell FFTs.
               1 threads for parallel FFT box operations.
               4 threads for loops over batched FFT box operations.
               4 threads in other parallel regions.
... done

Basic input checks...
Resetting ngwf_cg_rotate to TRUE for EDFT calculations
... done

Reading geometry and species blocks from file "3.1930128_GO_manual_4x64graphite.dat" ...
    
  PSINC grid spacing along a1 set to   0.511215680000a0 from input file.
  PSINC grid spacing along a2 set to   0.531284090000a0 from input file.
  PSINC grid spacing along a3 set to   0.507053120000a0 from input file.
  Number of PPD points along a3 set to 1.  This is 
  the default value, it may have been provided also in the input file.
... done
 Writing xyz coordinates to file "3.1930128_GO_manual_4x64graphite.xyz" ... done


--------------------------------------------------------------------------------
---------------------------------- INPUT FILE ----------------------------------
--------------------------------------------------------------------------------

task : singlepoint                                                              
do_properties : true                                                            
dx_format T                                                                     
edft T                                                                          
output_detail VERBOSE                                                           
write_xyz T                                                                     
xc_functional VDWDF2                                                            
PSINC_SPACING 0.51121568 0.53128409 0.50705312                                  
paw T                                                                           
pdos_max_l = 2                                                                  
dos_smear  0.1 eV                                                               
popn_calculate T                                                                
PDOS_PSEUDOATOMIC T                                                             
PDOS_REDUCE_SWS F                                                               
PDOS_CONSTRUCT_BASIS F                                                          
PDOS_LOWDIN T                                                                   
PDOS_ORTH_ATOM_BLOCKS F                                                         
PDOS_LCAO_OPTIMIZE F                                                            
pdos_optados_output T                                                           
homo_plot 0                                                                     
lumo_plot 0                                                                     
homo_dens_plot -1                                                               
lumo_dens_plot -1                                                               
%BLOCK SPECIES                                                                  
C C 6 4 9.0                                                                     
%ENDBLOCK SPECIES                                                               
%BLOCK SPECIES_POT                                                              
C "~/pp/paw/c_pbe_abinit.paw"                                                   
%ENDBLOCK SPECIES_POT                                                           
%BLOCK SPECIES_ATOMIC_SET                                                       
C "SOLVE conf=2s2 2p2"                                                          
%ENDBLOCK SPECIES_ATOMIC_SET                                                    
%BLOCK LATTICE_CART                                                             
32.21  0.00  0.00                                                               
0.00 18.59  0.00                                                                
0.00  0.00 60.34                                                                
%ENDBLOCK LATTICE_CART                                                          
%BLOCK POSITIONS_ABS                                                            
C  0.00  0.00  3.02                                                             
C  0.00  0.00 15.08                                                             
C  0.00  0.00 27.15                                                             
C  0.00  0.00 39.22                                                             
C  0.00  0.00 51.29                                                             
C  0.00  4.65  3.02                                                             
C  0.00  4.65 15.08                                                             
C  0.00  4.65 27.15                                                             
C  0.00  4.65 39.22                                                             
C  0.00  4.65 51.29                                                             
C  4.03  2.32  3.02                                                             
C  4.03  2.32 15.08                                                             
C  4.03  2.32 27.15                                                             
C  4.03  2.32 39.22                                                             
C  4.03  2.32 51.29                                                             
C  8.05  0.00  3.02                                                             
C  8.05  0.00 15.08                                                             
C  8.05  0.00 27.15                                                             
C  8.05  0.00 39.22                                                             
C  8.05  0.00 51.29                                                             
C  0.00  9.30  3.02                                                             
C  0.00  9.30 15.08                                                             
C  0.00  9.30 27.15                                                             
C  0.00  9.30 39.22                                                             
C  0.00  9.30 51.29                                                             
C  4.03  6.97  3.02                                                             
C  4.03  6.97 15.08                                                             
C  4.03  6.97 27.15                                                             
C  4.03  6.97 39.22                                                             
C  4.03  6.97 51.29                                                             
C  8.05  4.65  3.02                                                             
C  8.05  4.65 15.08                                                             
C  8.05  4.65 27.15                                                             
C  8.05  4.65 39.22                                                             
C  8.05  4.65 51.29                                                             
C 12.08  2.32  3.02                                                             
C 12.08  2.32 15.08                                                             
C 12.08  2.32 27.15                                                             
C 12.08  2.32 39.22                                                             
C 12.08  2.32 51.29                                                             
C 16.10  0.00  3.02                                                             
C 16.10  0.00 15.08                                                             
C 16.10  0.00 27.15                                                             
C 16.10  0.00 39.22                                                             
C 16.10  0.00 51.29                                                             
C  0.00 13.95  3.02                                                             
C  0.00 13.95 15.08                                                             
C  0.00 13.95 27.15                                                             
C  0.00 13.95 39.22                                                             
C  0.00 13.95 51.29                                                             
C  4.03 11.62  3.02                                                             
C  4.03 11.62 15.08                                                             
C  4.03 11.62 27.15                                                             
C  4.03 11.62 39.22                                                             
C  4.03 11.62 51.29                                                             
C  8.05  9.30  3.02                                                             
C  8.05  9.30 15.08                                                             
C  8.05  9.30 27.15                                                             
C  8.05  9.30 39.22                                                             
C  8.05  9.30 51.29                                                             
C 12.08  6.97  3.02                                                             
C 12.08  6.97 15.08                                                             
C 12.08  6.97 27.15                                                             
C 12.08  6.97 39.22                                                             
C 12.08  6.97 51.29                                                             
C 16.10  4.65  3.02                                                             
C 16.10  4.65 15.08                                                             
C 16.10  4.65 27.15                                                             
C 16.10  4.65 39.22                                                             
C 16.10  4.65 51.29                                                             
C 20.13  2.32  3.02                                                             
C 20.13  2.32 15.08                                                             
C 20.13  2.32 27.15                                                             
C 20.13  2.32 39.22                                                             
C 20.13  2.32 51.29                                                             
C 24.16  0.00  3.02                                                             
C 24.16  0.00 15.08                                                             
C 24.16  0.00 27.15                                                             
C 24.16  0.00 39.22                                                             
C 24.16  0.00 51.29                                                             
C  4.03 16.27  3.02                                                             
C  4.03 16.27 15.08                                                             
C  4.03 16.27 27.15                                                             
C  4.03 16.27 39.22                                                             
C  4.03 16.27 51.29                                                             
C  8.05 13.95  3.02                                                             
C  8.05 13.95 15.08                                                             
C  8.05 13.95 27.15                                                             
C  8.05 13.95 39.22                                                             
C  8.05 13.95 51.29                                                             
C 12.08 11.62  3.02                                                             
C 12.08 11.62 15.08                                                             
C 12.08 11.62 27.15                                                             
C 12.08 11.62 39.22                                                             
C 12.08 11.62 51.29                                                             
C 16.10  9.30  3.02                                                             
C 16.10  9.30 15.08                                                             
C 16.10  9.30 27.15                                                             
C 16.10  9.30 39.22                                                             
C 16.10  9.30 51.29                                                             
C 20.13  6.97  3.02                                                             
C 20.13  6.97 15.08                                                             
C 20.13  6.97 27.15                                                             
C 20.13  6.97 39.22                                                             
C 20.13  6.97 51.29                                                             
C 24.16  4.65  3.02                                                             
C 24.16  4.65 15.08                                                             
C 24.16  4.65 27.15                                                             
C 24.16  4.65 39.22                                                             
C 24.16  4.65 51.29                                                             
C 28.18  2.32  3.02                                                             
C 28.18  2.32 15.08                                                             
C 28.18  2.32 27.15                                                             
C 28.18  2.32 39.22                                                             
C 28.18  2.32 51.29                                                             
C 12.08 16.27  3.02                                                             
C 12.08 16.27 15.08                                                             
C 12.08 16.27 27.15                                                             
C 12.08 16.27 39.22                                                             
C 12.08 16.27 51.29                                                             
C 16.10 13.95  3.02                                                             
C 16.10 13.95 15.08                                                             
C 16.10 13.95 27.15                                                             
C 16.10 13.95 39.22                                                             
C 16.10 13.95 51.29                                                             
C 20.13 11.62  3.02                                                             
C 20.13 11.62 15.08                                                             
C 20.13 11.62 27.15                                                             
C 20.13 11.62 39.22                                                             
C 20.13 11.62 51.29                                                             
C 24.16  9.30  3.02                                                             
C 24.16  9.30 15.08                                                             
C 24.16  9.30 27.15                                                             
C 24.16  9.30 39.22                                                             
C 24.16  9.30 51.29                                                             
C 28.18  6.97  3.02                                                             
C 28.18  6.97 15.08                                                             
C 28.18  6.97 27.15                                                             
C 28.18  6.97 39.22                                                             
C 28.18  6.97 51.29                                                             
C 20.13 16.27  3.02                                                             
C 20.13 16.27 15.08                                                             
C 20.13 16.27 27.15                                                             
C 20.13 16.27 39.22                                                             
C 20.13 16.27 51.29                                                             
C 24.16 13.95  3.02                                                             
C 24.16 13.95 15.08                                                             
C 24.16 13.95 27.15                                                             
C 24.16 13.95 39.22                                                             
C 24.16 13.95 51.29                                                             
C 28.18 11.62  3.02                                                             
C 28.18 11.62 15.08                                                             
C 28.18 11.62 27.15                                                             
C 28.18 11.62 39.22                                                             
C 28.18 11.62 51.29                                                             
C 28.18 16.27  3.02                                                             
C 28.18 16.27 15.08                                                             
C 28.18 16.27 27.15                                                             
C 28.18 16.27 39.22                                                             
C 28.18 16.27 51.29                                                             
C  0.00  0.00  9.05                                                             
C  0.00  0.00 21.12                                                             
C  0.00  0.00 33.19                                                             
C  0.00  0.00 45.25                                                             
C  0.00  0.00 57.32                                                             
C  0.00  4.65  9.05                                                             
C  0.00  4.65 21.12                                                             
C  0.00  4.65 33.19                                                             
C  0.00  4.65 45.25                                                             
C  0.00  4.65 57.32                                                             
C  4.03  2.32  9.05                                                             
C  4.03  2.32 21.12                                                             
C  4.03  2.32 33.19                                                             
C  4.03  2.32 45.25                                                             
C  4.03  2.32 57.32                                                             
C  8.05  0.00  9.05                                                             
C  8.05  0.00 21.12                                                             
C  8.05  0.00 33.19                                                             
C  8.05  0.00 45.25                                                             
C  8.05  0.00 57.32                                                             
C  0.00  9.30  9.05                                                             
C  0.00  9.30 21.12                                                             
C  0.00  9.30 33.19                                                             
C  0.00  9.30 45.25                                                             
C  0.00  9.30 57.32                                                             
C  4.03  6.97  9.05                                                             
C  4.03  6.97 21.12                                                             
C  4.03  6.97 33.19                                                             
C  4.03  6.97 45.25                                                             
C  4.03  6.97 57.32                                                             
C  8.05  4.65  9.05                                                             
C  8.05  4.65 21.12                                                             
C  8.05  4.65 33.19                                                             
C  8.05  4.65 45.25                                                             
C  8.05  4.65 57.32                                                             
C 12.08  2.32  9.05                                                             
C 12.08  2.32 21.12                                                             
C 12.08  2.32 33.19                                                             
C 12.08  2.32 45.25                                                             
C 12.08  2.32 57.32                                                             
C 16.10  0.00  9.05                                                             
C 16.10  0.00 21.12                                                             
C 16.10  0.00 33.19                                                             
C 16.10  0.00 45.25                                                             
C 16.10  0.00 57.32                                                             
C  0.00 13.95  9.05                                                             
C  0.00 13.95 21.12                                                             
C  0.00 13.95 33.19                                                             
C  0.00 13.95 45.25                                                             
C  0.00 13.95 57.32                                                             
C  4.03 11.62  9.05                                                             
C  4.03 11.62 21.12                                                             
C  4.03 11.62 33.19                                                             
C  4.03 11.62 45.25                                                             
C  4.03 11.62 57.32                                                             
C  8.05  9.30  9.05                                                             
C  8.05  9.30 21.12                                                             
C  8.05  9.30 33.19                                                             
C  8.05  9.30 45.25                                                             
C  8.05  9.30 57.32                                                             
C 12.08  6.97  9.05                                                             
C 12.08  6.97 21.12                                                             
C 12.08  6.97 33.19                                                             
C 12.08  6.97 45.25                                                             
C 12.08  6.97 57.32                                                             
C 16.10  4.65  9.05                                                             
C 16.10  4.65 21.12                                                             
C 16.10  4.65 33.19                                                             
C 16.10  4.65 45.25                                                             
C 16.10  4.65 57.32                                                             
C 20.13  2.32  9.05                                                             
C 20.13  2.32 21.12                                                             
C 20.13  2.32 33.19                                                             
C 20.13  2.32 45.25                                                             
C 20.13  2.32 57.32                                                             
C 24.16  0.00  9.05                                                             
C 24.16  0.00 21.12                                                             
C 24.16  0.00 33.19                                                             
C 24.16  0.00 45.25                                                             
C 24.16  0.00 57.32                                                             
C  4.03 16.27  9.05                                                             
C  4.03 16.27 21.12                                                             
C  4.03 16.27 33.19                                                             
C  4.03 16.27 45.25                                                             
C  4.03 16.27 57.32                                                             
C  8.05 13.95  9.05                                                             
C  8.05 13.95 21.12                                                             
C  8.05 13.95 33.19                                                             
C  8.05 13.95 45.25                                                             
C  8.05 13.95 57.32                                                             
C 12.08 11.62  9.05                                                             
C 12.08 11.62 21.12                                                             
C 12.08 11.62 33.19                                                             
C 12.08 11.62 45.25                                                             
C 12.08 11.62 57.32                                                             
C 16.10  9.30  9.05                                                             
C 16.10  9.30 21.12                                                             
C 16.10  9.30 33.19                                                             
C 16.10  9.30 45.25                                                             
C 16.10  9.30 57.32                                                             
C 20.13  6.97  9.05                                                             
C 20.13  6.97 21.12                                                             
C 20.13  6.97 33.19                                                             
C 20.13  6.97 45.25                                                             
C 20.13  6.97 57.32                                                             
C 24.16  4.65  9.05                                                             
C 24.16  4.65 21.12                                                             
C 24.16  4.65 33.19                                                             
C 24.16  4.65 45.25                                                             
C 24.16  4.65 57.32                                                             
C 28.18  2.32  9.05                                                             
C 28.18  2.32 21.12                                                             
C 28.18  2.32 33.19                                                             
C 28.18  2.32 45.25                                                             
C 28.18  2.32 57.32                                                             
C 12.08 16.27  9.05                                                             
C 12.08 16.27 21.12                                                             
C 12.08 16.27 33.19                                                             
C 12.08 16.27 45.25                                                             
C 12.08 16.27 57.32                                                             
C 16.10 13.95  9.05                                                             
C 16.10 13.95 21.12                                                             
C 16.10 13.95 33.19                                                             
C 16.10 13.95 45.25                                                             
C 16.10 13.95 57.32                                                             
C 20.13 11.62  9.05                                                             
C 20.13 11.62 21.12                                                             
C 20.13 11.62 33.19                                                             
C 20.13 11.62 45.25                                                             
C 20.13 11.62 57.32                                                             
C 24.16  9.30  9.05                                                             
C 24.16  9.30 21.12                                                             
C 24.16  9.30 33.19                                                             
C 24.16  9.30 45.25                                                             
C 24.16  9.30 57.32                                                             
C 28.18  6.97  9.05                                                             
C 28.18  6.97 21.12                                                             
C 28.18  6.97 33.19                                                             
C 28.18  6.97 45.25                                                             
C 28.18  6.97 57.32                                                             
C 20.13 16.27  9.05                                                             
C 20.13 16.27 21.12                                                             
C 20.13 16.27 33.19                                                             
C 20.13 16.27 45.25                                                             
C 20.13 16.27 57.32                                                             
C 24.16 13.95  9.05                                                             
C 24.16 13.95 21.12                                                             
C 24.16 13.95 33.19                                                             
C 24.16 13.95 45.25                                                             
C 24.16 13.95 57.32                                                             
C 28.18 11.62  9.05                                                             
C 28.18 11.62 21.12                                                             
C 28.18 11.62 33.19                                                             
C 28.18 11.62 45.25                                                             
C 28.18 11.62 57.32                                                             
C 28.18 16.27  9.05                                                             
C 28.18 16.27 21.12                                                             
C 28.18 16.27 33.19                                                             
C 28.18 16.27 45.25                                                             
C 28.18 16.27 57.32                                                             
C  1.34  2.32  3.02                                                             
C  1.34  2.32 15.08                                                             
C  1.34  2.32 27.15                                                             
C  1.34  2.32 39.22                                                             
C  1.34  2.32 51.29                                                             
C  5.37  0.00  3.02                                                             
C  5.37  0.00 15.08                                                             
C  5.37  0.00 27.15                                                             
C  5.37  0.00 39.22                                                             
C  5.37  0.00 51.29                                                             
C  1.34  6.97  3.02                                                             
C  1.34  6.97 15.08                                                             
C  1.34  6.97 27.15                                                             
C  1.34  6.97 39.22                                                             
C  1.34  6.97 51.29                                                             
C  5.37  4.65  3.02                                                             
C  5.37  4.65 15.08                                                             
C  5.37  4.65 27.15                                                             
C  5.37  4.65 39.22                                                             
C  5.37  4.65 51.29                                                             
C  9.39  2.32  3.02                                                             
C  9.39  2.32 15.08                                                             
C  9.39  2.32 27.15                                                             
C  9.39  2.32 39.22                                                             
C  9.39  2.32 51.29                                                             
C 13.42  0.00  3.02                                                             
C 13.42  0.00 15.08                                                             
C 13.42  0.00 27.15                                                             
C 13.42  0.00 39.22                                                             
C 13.42  0.00 51.29                                                             
C  1.34 11.62  3.02                                                             
C  1.34 11.62 15.08                                                             
C  1.34 11.62 27.15                                                             
C  1.34 11.62 39.22                                                             
C  1.34 11.62 51.29                                                             
C  5.37  9.30  3.02                                                             
C  5.37  9.30 15.08                                                             
C  5.37  9.30 27.15                                                             
C  5.37  9.30 39.22                                                             
C  5.37  9.30 51.29                                                             
C  9.39  6.97  3.02                                                             
C  9.39  6.97 15.08                                                             
C  9.39  6.97 27.15                                                             
C  9.39  6.97 39.22                                                             
C  9.39  6.97 51.29                                                             
C 13.42  4.65  3.02                                                             
C 13.42  4.65 15.08                                                             
C 13.42  4.65 27.15                                                             
C 13.42  4.65 39.22                                                             
C 13.42  4.65 51.29                                                             
C 17.45  2.32  3.02                                                             
C 17.45  2.32 15.08                                                             
C 17.45  2.32 27.15                                                             
C 17.45  2.32 39.22                                                             
C 17.45  2.32 51.29                                                             
C 21.47  0.00  3.02                                                             
C 21.47  0.00 15.08                                                             
C 21.47  0.00 27.15                                                             
C 21.47  0.00 39.22                                                             
C 21.47  0.00 51.29                                                             
C  1.34 16.27  3.02                                                             
C  1.34 16.27 15.08                                                             
C  1.34 16.27 27.15                                                             
C  1.34 16.27 39.22                                                             
C  1.34 16.27 51.29                                                             
C  5.37 13.95  3.02                                                             
C  5.37 13.95 15.08                                                             
C  5.37 13.95 27.15                                                             
C  5.37 13.95 39.22                                                             
C  5.37 13.95 51.29                                                             
C  9.39 11.62  3.02                                                             
C  9.39 11.62 15.08                                                             
C  9.39 11.62 27.15                                                             
C  9.39 11.62 39.22                                                             
C  9.39 11.62 51.29                                                             
C 13.42  9.30  3.02                                                             
C 13.42  9.30 15.08                                                             
C 13.42  9.30 27.15                                                             
C 13.42  9.30 39.22                                                             
C 13.42  9.30 51.29                                                             
C 17.45  6.97  3.02                                                             
C 17.45  6.97 15.08                                                             
C 17.45  6.97 27.15                                                             
C 17.45  6.97 39.22                                                             
C 17.45  6.97 51.29                                                             
C 21.47  4.65  3.02                                                             
C 21.47  4.65 15.08                                                             
C 21.47  4.65 27.15                                                             
C 21.47  4.65 39.22                                                             
C 21.47  4.65 51.29                                                             
C 25.50  2.32  3.02                                                             
C 25.50  2.32 15.08                                                             
C 25.50  2.32 27.15                                                             
C 25.50  2.32 39.22                                                             
C 25.50  2.32 51.29                                                             
C 29.52  0.00  3.02                                                             
C 29.52  0.00 15.08                                                             
C 29.52  0.00 27.15                                                             
C 29.52  0.00 39.22                                                             
C 29.52  0.00 51.29                                                             
C  9.39 16.27  3.02                                                             
C  9.39 16.27 15.08                                                             
C  9.39 16.27 27.15                                                             
C  9.39 16.27 39.22                                                             
C  9.39 16.27 51.29                                                             
C 13.42 13.95  3.02                                                             
C 13.42 13.95 15.08                                                             
C 13.42 13.95 27.15                                                             
C 13.42 13.95 39.22                                                             
C 13.42 13.95 51.29                                                             
C 17.45 11.62  3.02                                                             
C 17.45 11.62 15.08                                                             
C 17.45 11.62 27.15                                                             
C 17.45 11.62 39.22                                                             
C 17.45 11.62 51.29                                                             
C 21.47  9.30  3.02                                                             
C 21.47  9.30 15.08                                                             
C 21.47  9.30 27.15                                                             
C 21.47  9.30 39.22                                                             
C 21.47  9.30 51.29                                                             
C 25.50  6.97  3.02                                                             
C 25.50  6.97 15.08                                                             
C 25.50  6.97 27.15                                                             
C 25.50  6.97 39.22                                                             
C 25.50  6.97 51.29                                                             
C 29.52  4.65  3.02                                                             
C 29.52  4.65 15.08                                                             
C 29.52  4.65 27.15                                                             
C 29.52  4.65 39.22                                                             
C 29.52  4.65 51.29                                                             
C 17.45 16.27  3.02                                                             
C 17.45 16.27 15.08                                                             
C 17.45 16.27 27.15                                                             
C 17.45 16.27 39.22                                                             
C 17.45 16.27 51.29                                                             
C 21.47 13.95  3.02                                                             
C 21.47 13.95 15.08                                                             
C 21.47 13.95 27.15                                                             
C 21.47 13.95 39.22                                                             
C 21.47 13.95 51.29                                                             
C 25.50 11.62  3.02                                                             
C 25.50 11.62 15.08                                                             
C 25.50 11.62 27.15                                                             
C 25.50 11.62 39.22                                                             
C 25.50 11.62 51.29                                                             
C 29.52  9.30  3.02                                                             
C 29.52  9.30 15.08                                                             
C 29.52  9.30 27.15                                                             
C 29.52  9.30 39.22                                                             
C 29.52  9.30 51.29                                                             
C 25.50 16.27  3.02                                                             
C 25.50 16.27 15.08                                                             
C 25.50 16.27 27.15                                                             
C 25.50 16.27 39.22                                                             
C 25.50 16.27 51.29                                                             
C 29.52 13.95  3.02                                                             
C 29.52 13.95 15.08                                                             
C 29.52 13.95 27.15                                                             
C 29.52 13.95 39.22                                                             
C 29.52 13.95 51.29                                                             
C  2.68  0.00  9.05                                                             
C  2.68  0.00 21.12                                                             
C  2.68  0.00 33.19                                                             
C  2.68  0.00 45.25                                                             
C  2.68  0.00 57.32                                                             
C  2.68  4.65  9.05                                                             
C  2.68  4.65 21.12                                                             
C  2.68  4.65 33.19                                                             
C  2.68  4.65 45.25                                                             
C  2.68  4.65 57.32                                                             
C  6.71  2.32  9.05                                                             
C  6.71  2.32 21.12                                                             
C  6.71  2.32 33.19                                                             
C  6.71  2.32 45.25                                                             
C  6.71  2.32 57.32                                                             
C 10.74  0.00  9.05                                                             
C 10.74  0.00 21.12                                                             
C 10.74  0.00 33.19                                                             
C 10.74  0.00 45.25                                                             
C 10.74  0.00 57.32                                                             
C  2.68  9.30  9.05                                                             
C  2.68  9.30 21.12                                                             
C  2.68  9.30 33.19                                                             
C  2.68  9.30 45.25                                                             
C  2.68  9.30 57.32                                                             
C  6.71  6.97  9.05                                                             
C  6.71  6.97 21.12                                                             
C  6.71  6.97 33.19                                                             
C  6.71  6.97 45.25                                                             
C  6.71  6.97 57.32                                                             
C 10.74  4.65  9.05                                                             
C 10.74  4.65 21.12                                                             
C 10.74  4.65 33.19                                                             
C 10.74  4.65 45.25                                                             
C 10.74  4.65 57.32                                                             
C 14.76  2.32  9.05                                                             
C 14.76  2.32 21.12                                                             
C 14.76  2.32 33.19                                                             
C 14.76  2.32 45.25                                                             
C 14.76  2.32 57.32                                                             
C 18.79  0.00  9.05                                                             
C 18.79  0.00 21.12                                                             
C 18.79  0.00 33.19                                                             
C 18.79  0.00 45.25                                                             
C 18.79  0.00 57.32                                                             
C  2.68 13.95  9.05                                                             
C  2.68 13.95 21.12                                                             
C  2.68 13.95 33.19                                                             
C  2.68 13.95 45.25                                                             
C  2.68 13.95 57.32                                                             
C  6.71 11.62  9.05                                                             
C  6.71 11.62 21.12                                                             
C  6.71 11.62 33.19                                                             
C  6.71 11.62 45.25                                                             
C  6.71 11.62 57.32                                                             
C 10.74  9.30  9.05                                                             
C 10.74  9.30 21.12                                                             
C 10.74  9.30 33.19                                                             
C 10.74  9.30 45.25                                                             
C 10.74  9.30 57.32                                                             
C 14.76  6.97  9.05                                                             
C 14.76  6.97 21.12                                                             
C 14.76  6.97 33.19                                                             
C 14.76  6.97 45.25                                                             
C 14.76  6.97 57.32                                                             
C 18.79  4.65  9.05                                                             
C 18.79  4.65 21.12                                                             
C 18.79  4.65 33.19                                                             
C 18.79  4.65 45.25                                                             
C 18.79  4.65 57.32                                                             
C 22.81  2.32  9.05                                                             
C 22.81  2.32 21.12                                                             
C 22.81  2.32 33.19                                                             
C 22.81  2.32 45.25                                                             
C 22.81  2.32 57.32                                                             
C 26.84  0.00  9.05                                                             
C 26.84  0.00 21.12                                                             
C 26.84  0.00 33.19                                                             
C 26.84  0.00 45.25                                                             
C 26.84  0.00 57.32                                                             
C  6.71 16.27  9.05                                                             
C  6.71 16.27 21.12                                                             
C  6.71 16.27 33.19                                                             
C  6.71 16.27 45.25                                                             
C  6.71 16.27 57.32                                                             
C 10.74 13.95  9.05                                                             
C 10.74 13.95 21.12                                                             
C 10.74 13.95 33.19                                                             
C 10.74 13.95 45.25                                                             
C 10.74 13.95 57.32                                                             
C 14.76 11.62  9.05                                                             
C 14.76 11.62 21.12                                                             
C 14.76 11.62 33.19                                                             
C 14.76 11.62 45.25                                                             
C 14.76 11.62 57.32                                                             
C 18.79  9.30  9.05                                                             
C 18.79  9.30 21.12                                                             
C 18.79  9.30 33.19                                                             
C 18.79  9.30 45.25                                                             
C 18.79  9.30 57.32                                                             
C 22.81  6.97  9.05                                                             
C 22.81  6.97 21.12                                                             
C 22.81  6.97 33.19                                                             
C 22.81  6.97 45.25                                                             
C 22.81  6.97 57.32                                                             
C 26.84  4.65  9.05                                                             
C 26.84  4.65 21.12                                                             
C 26.84  4.65 33.19                                                             
C 26.84  4.65 45.25                                                             
C 26.84  4.65 57.32                                                             
C 30.86  2.32  9.05                                                             
C 30.86  2.32 21.12                                                             
C 30.86  2.32 33.19                                                             
C 30.86  2.32 45.25                                                             
C 30.86  2.32 57.32                                                             
C 14.76 16.27  9.05                                                             
C 14.76 16.27 21.12                                                             
C 14.76 16.27 33.19                                                             
C 14.76 16.27 45.25                                                             
C 14.76 16.27 57.32                                                             
C 18.79 13.95  9.05                                                             
C 18.79 13.95 21.12                                                             
C 18.79 13.95 33.19                                                             
C 18.79 13.95 45.25                                                             
C 18.79 13.95 57.32                                                             
C 22.81 11.62  9.05                                                             
C 22.81 11.62 21.12                                                             
C 22.81 11.62 33.19                                                             
C 22.81 11.62 45.25                                                             
C 22.81 11.62 57.32                                                             
C 26.84  9.30  9.05                                                             
C 26.84  9.30 21.12                                                             
C 26.84  9.30 33.19                                                             
C 26.84  9.30 45.25                                                             
C 26.84  9.30 57.32                                                             
C 30.86  6.97  9.05                                                             
C 30.86  6.97 21.12                                                             
C 30.86  6.97 33.19                                                             
C 30.86  6.97 45.25                                                             
C 30.86  6.97 57.32                                                             
C 22.81 16.27  9.05                                                             
C 22.81 16.27 21.12                                                             
C 22.81 16.27 33.19                                                             
C 22.81 16.27 45.25                                                             
C 22.81 16.27 57.32                                                             
C 26.84 13.95  9.05                                                             
C 26.84 13.95 21.12                                                             
C 26.84 13.95 33.19                                                             
C 26.84 13.95 45.25                                                             
C 26.84 13.95 57.32                                                             
C 30.86 11.62  9.05                                                             
C 30.86 11.62 21.12                                                             
C 30.86 11.62 33.19                                                             
C 30.86 11.62 45.25                                                             
C 30.86 11.62 57.32                                                             
C 30.86 16.27  9.05                                                             
C 30.86 16.27 21.12                                                             
C 30.86 16.27 33.19                                                             
C 30.86 16.27 45.25                                                             
C 30.86 16.27 57.32                                                             
%ENDBLOCK POSITIONS_ABS                                                         

--------------------------------------------------------------------------------
-------------------------------- END INPUT FILE --------------------------------
--------------------------------------------------------------------------------


 
<<<<<<<<<<<<<<<<<<<<<<<<<<<<<<<<< Full system >>>>>>>>>>>>>>>>>>>>>>>>>>>>>>>>>>
<<<<<<<<<<<<<<<<<<<<<<<<<<< PAW Dataset information >>>>>>>>>>>>>>>>>>>>>>>>>>>
File: ~/pp/paw/c_pbe_abinit.paw; rc = 1.25 bohr; shape type =  3; rshape = 1.25 bohr;
  Atomic number:  6;  ionic charge:  4.000000
    Partial Wave 1: l = 0
    Partial Wave 2: l = 0
    Partial Wave 3: l = 1
    Partial Wave 4: l = 1
  Core charge supplied for Nonlinear Core Corrections
<<<<<<<<<<<<<<<<<<<<<<<<<<<<<<<<<<<<<<< >>>>>>>>>>>>>>>>>>>>>>>>>>>>>>>>>>>>>>>

-------------------------- Atom counting information ---------------------------
Symbol    Natoms    Nngwfs    Nprojs
  C        640      2560      5120
.......   ......    ......    ......
Totals:    640      2560      5120
--------------------------------------------------------------------------------

=============================== PSINC grid sizes ===============================
                      Simulation cell:   63 x  35 x 119
                              FFT-box:   63 x  35 x 117
                                  PPD:    7 x   5 x   1
Grid space d1=  0.511269841270a0 (KE cutoff=  29.06054Eh = 790.77748eV)
Grid space d2=  0.531142857143a0 (KE cutoff=  26.92659Eh = 732.70972eV)
Grid space d3=  0.507058823529a0 (KE cutoff=  29.54523Eh = 803.96650eV)
================================================================================
  
WARNING in cell_grid_distribute:
Average of less than one 23-slab per node, so workload cannot be
equally balanced between nodes.

********************* Fourier parallelisation information **********************
       Coarse grid (whole simulation cell) dimensions:     63    35   119
          Real-space ('12') slabs/node (min max mean):      2     3     2
         Recip-space ('23') slabs/node (min max mean):      0     1     0
********************************************************************************

********************* Fourier parallelisation information **********************
       Double grid (whole simulation cell) dimensions:    126    70   238
          Real-space ('12') slabs/node (min max mean):      5     6     5
         Recip-space ('23') slabs/node (min max mean):      1     2     1
********************************************************************************

Atom SCF Calculation for C  : Z (AE atom) =   6 : Z (PS atom) =   4
Config String: 2s2 2p2
Orbitals (num,occ):  2     2.00 2.00
Orbitals   (num,l):  2        0    1
Real-space Grid (nr,dr,rmax): 1293    0.0069659443    9.0000000000
Spherical Bessel Basis (nsws,lmax,cutoff):   37    2  161.4736382572
Confining potential (l,width,scale):  0    3.0000000000  100.0000000000
Confining potential (l,width,scale):  1    3.0000000000  100.0000000000
  1         -5.4691149987   -1.3647045835    4.5135257941   -1.6713568800
  2         -5.5214542834   -1.4154291535    4.4635199061   -1.6585170582
  3         -5.5221055910   -1.4439161209    4.4342087028   -1.6520281659
  4         -5.5287901521   -1.4522301802    4.4259176063   -1.6507873939
  5         -5.5308251003   -1.4557840400    4.4224142384   -1.6502632738
  6         -5.5317252094   -1.4571386008    4.4211068249   -1.6500892907
  7         -5.5320765973   -1.4576738924    4.4205997642   -1.6500256779
  8         -5.5322192721   -1.4578833190    4.4204056023   -1.6500032912
  9         -5.5322765240   -1.4579657561    4.4203308649   -1.6499954152
 10         -5.5322995843   -1.4579982639    4.4203020904   -1.6499927055
 11         -5.5323088576   -1.4580111317    4.4202909828   -1.6499917962
 12         -5.5323125859   -1.4580162439    4.4202866844   -1.6499915030
 13         -5.5323140836   -1.4580182832    4.4202850159   -1.6499914143
 14         -5.5323146847   -1.4580191002    4.4202843659   -1.6499913905
 15         -5.5323149258   -1.4580194290    4.4202841117   -1.6499913858
 16         -5.5323150224   -1.4580195619    4.4202840119   -1.6499913859
Atom SCF converged after  16 iterations to a total energy of     -5.53231502

Determining parallel strategy ...
... using space-filling curve
... NGWF load balancing: max     64;  min     64;  average     64
... Projector load balancing: max    128;  min    128;  average    128
... done
Calculating Ewald energy ...
              Ewald: real-space energy =    9529.001465
        Ewald: reciprocal-space energy =       0.042581
         Ewald: (sum_charge)**2 Energy =   11501.773302
         Ewald: (sum_charge**2) Energy =     909.295019
                          Ewald Energy =   -2882.024275
Basis initialisation ...... NGWF spheres initialised
... Projector spheres initialised
... NGWF tight boxes initialised
... Projector tight boxes initialised
... Tight-boxes gathered
... NGWF basis size (local,global):     692852  27896992
... PAW projector initialisation
... done

============================= Charge Augmentation ==============================
                           Aug box size:   11 x  11 x  11
================================================================================

========================== Sparse matrix information ===========================
                        Overlap matrix filling:  44.38%
                        Density kernel filling: 100.00%
              NGWF-Proj overlap matrix filling:  13.12%
                    Aug Overlap matrix filling:  47.81%
                    Hamiltonian matrix filling:  47.81%
                  NGWF diagonal matrix filling:   0.16%
                             KS matrix filling: 100.00% 
                           KSKS matrix filling: 100.00% 
================================================================================

Sparse matrix initialisation ... done
NGWF initialisation ...... done
============ Calculation of NGWF S^-1 using Hotelling algorithm ================ 
         Iteration  |  Frobenius norm and Maximum abs value    (of I-S*S_n^-1)   
               1       0.49237121E+02     0.97827184E+00
               2       0.48130051E+02     0.95831042E+00
               3       0.46432328E+02     0.92272182E+00
               4       0.44174950E+02     0.86415769E+00
               5       0.41428081E+02     0.77668088E+00
               6       0.38161664E+02     0.69124403E+00
               7       0.34623172E+02     0.64068833E+00
               8       0.31204836E+02     0.59845063E+00
               9       0.27682621E+02     0.55595365E+00
              10       0.23345353E+02     0.49267908E+00
              11       0.17683025E+02     0.39061446E+00
              12       0.10959599E+02     0.25003320E+00
              13       0.47679010E+01     0.10798461E+00
              14       0.10733902E+01     0.22679138E-01
              15       0.64298973E-01     0.12079526E-02
              16       0.28204816E-03     0.42873998E-05
              17       0.79138074E-08     0.77243434E-10
              18       0.82372207E-13     0.53290705E-14
================================================================================
Calculating core density ...
================================= Core Density =================================
               Core den box size:   21 x  21 x  21
================================================================================
 ... done
Up spin density kernel initialisation ...... done

Writing density kernel to file "3.1930128_GO_manual_4x64graphite.dkn" ... done

>>> Optimising kernel for current NGWFs:

--------------------------- Ensemble-DFT optimisation --------------------------
Running ScaLAPACK on   40 processor(s).

--------------------------------------------------------------------------------
  Iter                              Commutator    Free_energy(A=E-TS)     DeltaA
#    0                          0.000050611068   -3682.77035069761223  -3.68E+03

Step                       =       0.381966011250
Energy                     =   -3682.770302729494
Entropy (-TS)              =      -0.000047968499
Free energy (A=E-TS)       =   -3682.770350697612
Est. 0K Energy 0.5*(E+A)   =   -3682.770326713553
Residual Non-orthogonality =       0.000000000000
Residual N_electrons       =       0.000000000381

Spin          Integrated_Ne            Fermi_level     Delta_Fermi_level
   1      2559.999999998356         0.231491573453              2.31E-01

                           Spin 1          
     Orb      H-eigenvalues     Occupancies
       1 |    -0.4856393070    1.0000000000 | 
                          ------
    1276 |     0.1992452855    0.9999621777 | 
    1277 |     0.1998255868    0.9999545716 | 
    1278 |     0.1998559128    0.9999541345 | 
    1279 |     0.2002942324    0.9999473263 | 
    1280 |     0.2008933325    0.9999363572 | 
                 - Gap at zero temperature -
    1281 |     0.2644459264    0.0000302446 | 
    1282 |     0.2644559813    0.0000301487 | 
    1283 |     0.2645257176    0.0000294921 | 
    1284 |     0.2646812086    0.0000280791 | 
    1285 |     0.2646912777    0.0000279899 | 
                          ------
    2560 |     1.0515980308    0.0000000000 | 

                       |  Abs_value |  Threshold | Converged
     Delta_Free_energy |   3.68E+03 |   1.00E-06 |        No
     Delta_Energy      |   3.68E+03 |   1.00E-04 |        No
     Delta_Entropy     |   4.80E-05 |   1.00E-04 |       Yes
     Commutator        |   5.06E-05 |   1.00E-05 |        No
     Delta_Fermi_level |   2.31E-01 |   1.00E-03 |        No

  Line search of the free energy minimum:
  Step_type        Step             Free_energy   Predicted_free_energy
.   Initial    0.000000    -3682.77035069761223
.    Trial1    0.381966    -3682.77288543402756
.    Trial2    0.618034    -3682.77285909789543
. Quadratic    0.494891    -3682.77302323841104    -3682.77302465835555

--------------------------------------------------------------------------------
  Iter                              Commutator    Free_energy(A=E-TS)     DeltaA
#    1                          0.000026078262   -3682.77302323841104  -2.67E-03

Step                       =       0.494890849015
Energy                     =   -3682.772977937057
Entropy (-TS)              =      -0.000045301128
Free energy (A=E-TS)       =   -3682.773023238411
Est. 0K Energy 0.5*(E+A)   =   -3682.773000587734
Residual Non-orthogonality =       0.000000000000
Residual N_electrons       =      -0.000000000226

Spin          Integrated_Ne            Fermi_level     Delta_Fermi_level
   1      2560.000000000963         0.235051306164              3.56E-03

                           Spin 1          
     Orb      H-eigenvalues     Occupancies
       1 |    -0.4835753888    1.0000000000 | 
                          ------
    1276 |     0.2026819496    0.9999636193 | 
    1277 |     0.2031414966    0.9999579379 | 
    1278 |     0.2031528230    0.9999577872 | 
    1279 |     0.2037610235    0.9999488497 | 
    1280 |     0.2042206993    0.9999408595 | 
                 - Gap at zero temperature -
    1281 |     0.2681752911    0.0000286672 | 
    1282 |     0.2681908822    0.0000285264 | 
    1283 |     0.2682873619    0.0000276705 | 
    1284 |     0.2685257252    0.0000256642 | 
    1285 |     0.2685441544    0.0000255153 | 
                          ------
    2560 |     1.0571091523    0.0000000000 | 

                       |  Abs_value |  Threshold | Converged
     Delta_Free_energy |   2.67E-03 |   1.00E-06 |        No
     Delta_Energy      |   2.68E-03 |   1.00E-04 |        No
     Delta_Entropy     |   2.67E-06 |   1.00E-04 |       Yes
     Commutator        |   2.61E-05 |   1.00E-05 |        No
     Delta_Fermi_level |   3.56E-03 |   1.00E-03 |        No

  Line search of the free energy minimum:
  Step_type        Step             Free_energy   Predicted_free_energy
.   Initial    0.000000    -3682.77302323841104
.    Trial1    0.494891    -3682.77330282222329
.    Trial2    0.687825    -3682.77247064607309
. Quadratic    0.287274    -3682.77361074125520    -3682.77360853079244

--------------------------------------------------------------------------------
  Iter                              Commutator    Free_energy(A=E-TS)     DeltaA
#    2                          0.000016754381   -3682.77361074125520  -5.88E-04

Step                       =       0.287273695684
Energy                     =   -3682.773566335337
Entropy (-TS)              =      -0.000044405874
Free energy (A=E-TS)       =   -3682.773610741255
Est. 0K Energy 0.5*(E+A)   =   -3682.773588538296
Residual Non-orthogonality =       0.000000000000
Residual N_electrons       =      -0.000000000044

Spin          Integrated_Ne            Fermi_level     Delta_Fermi_level
   1      2560.000000000188         0.236052587787              1.00E-03

                           Spin 1          
     Orb      H-eigenvalues     Occupancies
       1 |    -0.4829812155    1.0000000000 | 
                          ------
    1276 |     0.2035912340    0.9999646609 | 
    1277 |     0.2040969419    0.9999585423 | 
    1278 |     0.2041068888    0.9999584119 | 
    1279 |     0.2046639810    0.9999504133 | 
    1280 |     0.2051681623    0.9999418561 | 
                 - Gap at zero temperature -
    1281 |     0.2692505676    0.0000280052 | 
    1282 |     0.2692669913    0.0000278603 | 
    1283 |     0.2693636789    0.0000270226 | 
    1284 |     0.2695779243    0.0000252549 | 
    1285 |     0.2695943177    0.0000251245 | 
                          ------
    2560 |     1.0587092174    0.0000000000 | 

                       |  Abs_value |  Threshold | Converged
     Delta_Free_energy |   5.88E-04 |   1.00E-06 |        No
     Delta_Energy      |   5.88E-04 |   1.00E-04 |        No
     Delta_Entropy     |   8.95E-07 |   1.00E-04 |       Yes
     Commutator        |   1.68E-05 |   1.00E-05 |        No
     Delta_Fermi_level |   1.00E-03 |   1.00E-03 |        No

  Line search of the free energy minimum:
  Step_type        Step             Free_energy   Predicted_free_energy
.   Initial    0.000000    -3682.77361074125520
.    Trial1    0.287274    -3682.77382987840383
.    Trial2    0.559511    -3682.77359993240407
. Quadratic    0.276393    -3682.77383024026994    -3682.77383021851165

--------------------------------------------------------------------------------
  Iter                              Commutator    Free_energy(A=E-TS)     DeltaA
#    3                          0.000011873488   -3682.77383024026994  -2.19E-04

Step                       =       0.276393389603
Energy                     =   -3682.773786416526
Entropy (-TS)              =      -0.000043824185
Free energy (A=E-TS)       =   -3682.773830240270
Est. 0K Energy 0.5*(E+A)   =   -3682.773808328398
Residual Non-orthogonality =       0.000000000000
Residual N_electrons       =       0.000000000441

Spin          Integrated_Ne            Fermi_level     Delta_Fermi_level
   1      2559.999999998137         0.236746722238              6.94E-04

                           Spin 1          
     Orb      H-eigenvalues     Occupancies
       1 |    -0.4825662935    1.0000000000 | 
                          ------
    1276 |     0.2042369015    0.9999651976 | 
    1277 |     0.2047504545    0.9999590707 | 
    1278 |     0.2047600443    0.9999589465 | 
    1279 |     0.2053082443    0.9999511880 | 
    1280 |     0.2058198560    0.9999426300 | 
                 - Gap at zero temperature -
    1281 |     0.2699888415    0.0000276176 | 
    1282 |     0.2700054741    0.0000274729 | 
    1283 |     0.2701049540    0.0000266233 | 
    1284 |     0.2703110886    0.0000249456 | 
    1285 |     0.2703276869    0.0000248152 | 
                          ------
    2560 |     1.0598216361    0.0000000000 | 

                       |  Abs_value |  Threshold | Converged
     Delta_Free_energy |   2.19E-04 |   1.00E-06 |        No
     Delta_Energy      |   2.20E-04 |   1.00E-04 |        No
     Delta_Entropy     |   5.82E-07 |   1.00E-04 |       Yes
     Commutator        |   1.19E-05 |   1.00E-05 |        No
     Delta_Fermi_level |   6.94E-04 |   1.00E-03 |       Yes

  Line search of the free energy minimum:
  Step_type        Step             Free_energy   Predicted_free_energy
.   Initial    0.000000    -3682.77383024026994
.    Trial1    0.276393    -3682.77393717677887
.    Trial2    0.552787    -3682.77382438051563
. Quadratic    0.272708    -3682.77393719881002    -3682.77393719631345

--------------------------------------------------------------------------------
  Iter                              Commutator    Free_energy(A=E-TS)     DeltaA
#    4                          0.000008705206   -3682.77393719881002  -1.07E-04

Step                       =       0.272707882308
Energy                     =   -3682.773893779710
Entropy (-TS)              =      -0.000043419528
Free energy (A=E-TS)       =   -3682.773937198810
Est. 0K Energy 0.5*(E+A)   =   -3682.773915489260
Residual Non-orthogonality =       0.000000000000
Residual N_electrons       =       0.000000000428

Spin          Integrated_Ne            Fermi_level     Delta_Fermi_level
   1      2559.999999998195         0.237242933904              4.96E-04

                           Spin 1          
[...]
 C   160 -- C   385       -0.09      5.37000
 C   159 -- C   384       -0.09      5.37000
 C   158 -- C   383       -0.09      5.37000
 C   157 -- C   382       -0.09      5.37000
 C   156 -- C   381       -0.09      5.37000
 C   155 -- C   355       -0.09      5.37000
 C   154 -- C   354       -0.09      5.37000
 C   153 -- C   353       -0.09      5.37000
 C   152 -- C   352       -0.09      5.37000
 C   151 -- C   351       -0.09      5.37000
 C   140 -- C   335       -0.09      5.37000
 C   139 -- C   334       -0.09      5.37000
 C   138 -- C   333       -0.09      5.37000
 C   137 -- C   332       -0.09      5.37000
 C   136 -- C   331       -0.09      5.37000
 C   115 -- C   325       -0.09      5.37000
 C   114 -- C   324       -0.09      5.37000
 C   113 -- C   323       -0.09      5.37000
 C   112 -- C   322       -0.09      5.37000
 C   111 -- C   321       -0.09      5.37000
 C   219 -- C   569       -0.09      5.37202
 C   218 -- C   568       -0.09      5.37202
 C   217 -- C   567       -0.09      5.37202
 C   216 -- C   566       -0.09      5.37202
 C   285 -- C   580       -0.09      5.37202
 C   284 -- C   579       -0.09      5.37202
 C   283 -- C   578       -0.09      5.37202
 C   282 -- C   577       -0.09      5.37202
 C   281 -- C   576       -0.09      5.37202
 C   260 -- C   605       -0.09      5.37202
 C   259 -- C   604       -0.09      5.37202
 C   258 -- C   603       -0.09      5.37202
 C   257 -- C   602       -0.09      5.37202
 C   256 -- C   601       -0.09      5.37202
 C   250 -- C   540       -0.09      5.37202
 C   249 -- C   539       -0.09      5.37202
 C   248 -- C   538       -0.09      5.37202
 C   247 -- C   537       -0.09      5.37202
 C   246 -- C   536       -0.09      5.37202
 C   220 -- C   570       -0.09      5.37202
 C   220 -- C   515       -0.09      5.37202
 C   219 -- C   514       -0.09      5.37202
 C   218 -- C   513       -0.09      5.37202
 C   217 -- C   512       -0.09      5.37202
 C   216 -- C   511       -0.09      5.37202
 C    95 -- C   425       -0.09      5.37202
 C    94 -- C   424       -0.09      5.37202
 C    93 -- C   423       -0.09      5.37202
 C   195 -- C   540       -0.09      5.37202
 C   195 -- C   500       -0.09      5.37202
 C   194 -- C   539       -0.09      5.37202
 C    92 -- C   422       -0.09      5.37202
 C   194 -- C   499       -0.09      5.37202
 C   193 -- C   538       -0.09      5.37202
 C   193 -- C   498       -0.09      5.37202
 C   192 -- C   537       -0.09      5.37202
 C    91 -- C   421       -0.09      5.37202
 C   192 -- C   497       -0.09      5.37202
 C   191 -- C   536       -0.09      5.37202
 C   191 -- C   496       -0.09      5.37202
 C    85 -- C   355       -0.09      5.37202
 C   180 -- C   515       -0.09      5.37202
 C    84 -- C   354       -0.09      5.37202
 C   179 -- C   514       -0.09      5.37202
 C    83 -- C   353       -0.09      5.37202
 C   178 -- C   513       -0.09      5.37202
 C   177 -- C   512       -0.09      5.37202
 C    82 -- C   352       -0.09      5.37202
 C   176 -- C   511       -0.09      5.37202
 C    81 -- C   351       -0.09      5.37202
 C   120 -- C   395       -0.09      5.37202
 C    55 -- C   385       -0.09      5.37202
 C   119 -- C   394       -0.09      5.37202
 C   118 -- C   393       -0.09      5.37202
 C   117 -- C   392       -0.09      5.37202
 C    54 -- C   384       -0.09      5.37202
 C   116 -- C   391       -0.09      5.37202
 C    53 -- C   383       -0.09      5.37202
 C    52 -- C   382       -0.09      5.37202
 C    51 -- C   381       -0.09      5.37202
 C   205 -- C   550       -0.09      5.37202
 C   204 -- C   549       -0.09      5.37202
 C   203 -- C   548       -0.09      5.37202
 C   202 -- C   547       -0.09      5.37202
 C   201 -- C   546       -0.09      5.37202
 C    95 -- C   365       -0.09      5.37202
 C    94 -- C   364       -0.09      5.37202
 C    93 -- C   363       -0.09      5.37202
 C    92 -- C   362       -0.09      5.37202
 C    91 -- C   361       -0.09      5.37202
 C    65 -- C   395       -0.09      5.37202
 C    64 -- C   394       -0.09      5.37202
 C    63 -- C   393       -0.09      5.37202
 C    30 -- C   355       -0.09      5.37202
 C    62 -- C   392       -0.09      5.37202
 C    61 -- C   391       -0.09      5.37202
 C    29 -- C   354       -0.09      5.37202
 C   260 -- C   550       -0.09      5.37202
 C   259 -- C   549       -0.09      5.37202
 C    28 -- C   353       -0.09      5.37202
 C   258 -- C   548       -0.09      5.37202
 C   257 -- C   547       -0.09      5.37202
 C   256 -- C   546       -0.09      5.37202
 C    27 -- C   352       -0.09      5.37202
 C    26 -- C   351       -0.09      5.37202
 C    55 -- C   335       -0.09      5.37202
 C    54 -- C   334       -0.09      5.37202
 C    53 -- C   333       -0.09      5.37202
 C   230 -- C   580       -0.09      5.37202
 C   230 -- C   525       -0.09      5.37202
 C   229 -- C   579       -0.09      5.37202
 C   229 -- C   524       -0.09      5.37202
 C   228 -- C   578       -0.09      5.37202
 C    52 -- C   332       -0.09      5.37202
 C   228 -- C   523       -0.09      5.37202
 C   227 -- C   577       -0.09      5.37202
 C   227 -- C   522       -0.09      5.37202
 C   226 -- C   576       -0.09      5.37202
 C   226 -- C   521       -0.09      5.37202
 C    51 -- C   331       -0.09      5.37202
 C    23 -- C   478       -0.09      5.37202
 C    49 -- C   469       -0.09      5.37202
 C    11 -- C   331       -0.09      5.37202
 C    48 -- C   468       -0.09      5.37202
 C    47 -- C   467       -0.09      5.37202
 C    22 -- C   477       -0.09      5.37202
 C    46 -- C   466       -0.09      5.37202
 C    21 -- C   476       -0.09      5.37202
 C    40 -- C   365       -0.09      5.37202
 C    39 -- C   364       -0.09      5.37202
 C    38 -- C   363       -0.09      5.37202
 C    37 -- C   362       -0.09      5.37202
 C    36 -- C   361       -0.09      5.37202
 C    15 -- C   335       -0.09      5.37202
 C    65 -- C   345       -0.09      5.37202
 C    64 -- C   344       -0.09      5.37202
 C    63 -- C   343       -0.09      5.37202
 C    30 -- C   325       -0.09      5.37202
 C    14 -- C   334       -0.09      5.37202
 C    62 -- C   342       -0.09      5.37202
 C    61 -- C   341       -0.09      5.37202
 C    29 -- C   324       -0.09      5.37202
 C    28 -- C   323       -0.09      5.37202
 C    13 -- C   333       -0.09      5.37202
 C    27 -- C   322       -0.09      5.37202
 C    26 -- C   321       -0.09      5.37202
 C    25 -- C   480       -0.09      5.37202
 C    12 -- C   332       -0.09      5.37202
 C    24 -- C   479       -0.09      5.37202
 C    50 -- C   470       -0.09      5.37202
 C    24 -- C   449       -0.09      5.37202
 C     6 -- C   416       -0.09      5.37202
 C    23 -- C   448       -0.09      5.37202
 C    22 -- C   447       -0.09      5.37202
 C    10 -- C   470       -0.09      5.37202
 C     5 -- C   450       -0.09      5.37202
 C    21 -- C   446       -0.09      5.37202
 C    10 -- C   420       -0.09      5.37202
 C     9 -- C   469       -0.09      5.37202
 C     9 -- C   419       -0.09      5.37202
 C     8 -- C   468       -0.09      5.37202
 C     4 -- C   449       -0.09      5.37202
 C   150 -- C   440       -0.09      5.37202
 C   149 -- C   439       -0.09      5.37202
 C   148 -- C   438       -0.09      5.37202
 C   147 -- C   437       -0.09      5.37202
 C     8 -- C   418       -0.09      5.37202
 C   146 -- C   436       -0.09      5.37202
 C     2 -- C   447       -0.09      5.37202
 C   135 -- C   460       -0.09      5.37202
 C     7 -- C   467       -0.09      5.37202
 C   134 -- C   459       -0.09      5.37202
 C   133 -- C   458       -0.09      5.37202
 C   132 -- C   457       -0.09      5.37202
 C   131 -- C   456       -0.09      5.37202
 C     7 -- C   417       -0.09      5.37202
 C     1 -- C   446       -0.09      5.37202
 C     6 -- C   466       -0.09      5.37202
 C    25 -- C   450       -0.09      5.37202
 C     3 -- C   448       -0.09      5.37202
 C   106 -- C   436       -0.09      5.37202
 C   106 -- C   376       -0.09      5.37202
 C    80 -- C   410       -0.09      5.37202
 C    79 -- C   409       -0.09      5.37202
 C    78 -- C   408       -0.09      5.37202
 C    77 -- C   407       -0.09      5.37202
 C    76 -- C   406       -0.09      5.37202
 C   135 -- C   410       -0.09      5.37202
 C   134 -- C   409       -0.09      5.37202
 C   133 -- C   408       -0.09      5.37202
 C   132 -- C   407       -0.09      5.37202
 C   131 -- C   406       -0.09      5.37202
 C   110 -- C   440       -0.09      5.37202
 C   110 -- C   380       -0.09      5.37202
 C   109 -- C   439       -0.09      5.37202
 C   109 -- C   379       -0.09      5.37202
 C   108 -- C   438       -0.09      5.37202
 C   108 -- C   378       -0.09      5.37202
 C   107 -- C   437       -0.09      5.37202
 C   107 -- C   377       -0.09      5.37202
 C   215 -- C   635       -0.09      5.38000
 C   214 -- C   634       -0.09      5.38000
 C   213 -- C   633       -0.09      5.38000
 C   212 -- C   632       -0.09      5.38000
 C   211 -- C   631       -0.09      5.38000
 C   190 -- C   620       -0.09      5.38000
 C   189 -- C   619       -0.09      5.38000
 C   188 -- C   618       -0.09      5.38000
 C   187 -- C   617       -0.09      5.38000
 C   186 -- C   616       -0.09      5.38000
 C   175 -- C   595       -0.09      5.38000
 C   174 -- C   594       -0.09      5.38000
 C   173 -- C   593       -0.09      5.38000
 C   172 -- C   592       -0.09      5.38000
 C   171 -- C   591       -0.09      5.38000
 C   245 -- C   640       -0.09      5.38000
 C   244 -- C   639       -0.09      5.38000
 C   243 -- C   638       -0.09      5.38000
 C   242 -- C   637       -0.09      5.38000
 C   241 -- C   636       -0.09      5.38000
==================================================


=================== Orbital energy and occupancy information ===================

      Total number of orbitals:    2560
        Occupancy sum (kernel):    1279.999999999
   Occupancy sum (eigenvalues):    1279.999999999
                 HOMO-LUMO gap:       0.061933403 Eh
                 Mid-gap level:       0.281001469 Eh

                        Orbital | Energy (Eh) | Occupancy
                            1    -0.443314800   1.0000000
                        .......   ...........   .........
                         1271     0.244653261   0.9999867
                         1272     0.244713904   0.9999864
                         1273     0.245121019   0.9999846
                         1274     0.245181552   0.9999843
                         1275     0.249024955   0.9999471
                         1276     0.249106937   0.9999457
                         1277     0.249462915   0.9999392
                         1278     0.249544748   0.9999376
                         1279     0.249615289   0.9999362
                         1280     0.250034767   0.9999271
                        ....... -- gap at 0K -- .........
                         1281     0.311968171   0.0000440
                         1282     0.311990498   0.0000437
                         1283     0.312231163   0.0000405
                         1284     0.312253333   0.0000402
                         1285     0.312997567   0.0000319
                         1286     0.313069568   0.0000312
                         1287     0.313278973   0.0000292
                         1288     0.313350978   0.0000285
                         1289     0.313758668   0.0000251
                         1290     0.314047215   0.0000230
                        .......   ...........   .........
                         2560     1.159107396   0.0000000

================================================================================

===================== Writing canonical molecular orbitals =====================
| Orbital  Energy (eV)  Norm     |
| HOMO      6.80379221  1.000000 | Writing "3.1930128_GO_manual_4x64graphite_HOMO.cube" ... done
Writing "3.1930128_GO_manual_4x64graphite_HOMO.dx" ... done
| LUMO      8.48908588  1.000000 | Writing "3.1930128_GO_manual_4x64graphite_LUMO.cube" ... done
Writing "3.1930128_GO_manual_4x64graphite_LUMO.dx" ... done
================================================================================
 
===================== Density of States (DOS) calculation ======================
Writing "3.1930128_GO_manual_4x64graphite_DOS.txt" ...  done
================================================================================
 
Writing bands to file "3.1930128_GO_manual_4x64graphite.val_bands" ... done
 
================ Projected Density of States (pDOS) calculation ================
 
Constructing AM resolved functions  ...... done
Writing NGWF plot files in formats: CUBE DX ...  done
 
Performing overlap integrals ...  done
 
Computing pDOS weights ...  done
 
All bands spilling parameter =   3.95 %
Occupancy-weighted spilling parameter =   0.88 %
 
 => Outputting data for OptaDOS <=
 
Writing pDOS weights to file "3.1930128_GO_manual_4x64graphite.val_pdos_bin" ... done
 
Writing band gradients to file "3.1930128_GO_manual_4x64graphite.val_dome_bin" ... done
 
Writing Castep output cell file to "3.1930128_GO_manual_4x64graphite-out.cell" ... done
 
 => Computing Gaussian smeared pDOS <= 
Writing "3.1930128_GO_manual_4x64graphite_PDOS.txt" ...  done
 
 => Computing Occupancy-weighted Gaussian smeared pDOS <= 
Writing "3.1930128_GO_manual_4x64graphite_occ_PDOS.txt" ...  done
  => Band centres: 
 S band centre of group 1:  -13.857421 eV
 P band centre of group 1:   -6.758121 eV
  Band centres done. <=
  => Integrated number of electrons in each AM band: 
 S num electrons of group 1:  574.950657
 P num electrons of group 1: 1962.532376
  Integrated number of electrons done. <=
================================================================================

------------------------------ TIMING INFORMATION ------------------------------
AVERAGE TIME:    4585.244s on     40 node(s)                                    
TOTAL TIME:      4585.244s on     40 node(s)                                    
================= AVERAGE TIMINGS FROM ALL NODES (CUMULATIVE) ==================
|| TAG                                    #calls    cpu time   %total  Gflops ||
|| work_imbalance                       :     1        0.00s   0.000%  ------ ||
|| paw_tcore_hartree_on_grid            :     1        0.00s   0.000%  ------ ||
|| paw_tcore_density                    :     1        0.01s   0.000%  ------ ||
|| paw_sphere_density_on_grid           :     1        0.01s   0.000%  ------ ||
|| sparse_set_to_garbage                :   183        0.03s   0.001%  ------ ||
|| pseudo_make_structure_factor         :     1        0.05s   0.001%  ------ ||
|| paw_dij_hartree                      :   410        0.05s   0.001%  ------ ||
|| basis_extract_function_from_box      :  2048        0.09s   0.002%  ------ ||
|| paw_species_calc_proj_prec_mat       :     1        0.12s   0.003%  ------ ||
|| paw_dataset_init                     :     1        0.15s   0.003%  ------ ||
|| density_init_guess_real              :     1        0.23s   0.005%  ------ ||
|| ngwfs_initialise_from_radial         :     2        0.66s   0.014%  ------ ||
|| restart_kernel_write                 :    17        0.88s   0.019%  ------ ||
|| sparse_init                          :     1        1.01s   0.022%  ------ ||
|| dense_normal_eigensolve              :     1        1.01s   0.022%  ------ ||
|| hartree_on_grid                      :   307        1.33s   0.029%  ------ ||
|| ewald_calculate_energy               :     1        2.32s   0.051%  ------ ||
|| projectors_init_fftbox_recip         :   161        3.13s   0.068%  ------ ||
|| fourier_apply_box_pair               :  3040        5.02s   0.109% 561.802 ||
|| basis_copy_function_to_box           : 28992        6.26s   0.137%  ------ ||
|| sw_init                              :     1        6.73s   0.147%  ------ ||
|| augmentation_screen_dij              :   314        6.76s   0.147%  ------ ||
|| sparse_embed_hotelling_invert_embed  :    31        9.68s   0.211%  ------ ||
|| ngwf_gradient_coeffs                 :    16       12.66s   0.276%  ------ ||
|| cell_grid_extract_box_real           : 12332       17.16s   0.374%  ------ ||
|| fourier_apply_cell_backward          :  9488       17.43s   0.380%  60.640 ||
|| fourier_apply_cell_forward           :  8875       18.40s   0.401%  53.724 ||
|| sparse_trace                         :  3728       21.12s   0.461%  ------ ||
|| cell_grid_deposit_box_real           : 39472       26.04s   0.568%  ------ ||
|| paw_dij_xc                           :   410       27.69s   0.604%  ------ ||
|| aug_nonlocal_mat                     :   394       42.11s   0.918%  ------ ||
|| density_fftbox_deposit_to_cell       : 19648       52.87s   1.153%  ------ ||
|| eigenstates_pdos                     :     1       55.13s   1.202%  ------ ||
|| augmentation_density_on_grid         :   307       57.12s   1.246%  ------ ||
|| eigenstates_calculate                :     1       59.31s   1.294%  ------ ||
|| function_ops_brappd_ketppd           :    64       65.80s   1.435%  ------ ||
|| hamiltonian_energy_components        :     4       67.52s   1.473%  ------ ||
|| nlxc_vdw_energy                      :   612       73.71s   1.608%  ------ ||
|| projectors_func_ovlp_box             :    32       78.05s   1.702%  ------ ||
|| xc_energy_potential                  :   306       85.21s   1.858%  ------ ||
|| properties_calculate                 :     1      105.80s   2.307%  ------ ||
|| integrals_kinetic                    :    31      117.46s   2.562%  ------ ||
|| dense_eigensolve                     :   271      128.17s   2.795%  ------ ||
|| restart_ngwfs_tightbox_output        :    15      147.69s   3.221%  ------ ||
|| potential_apply_to_ngwf_batch        :   392      153.68s   3.352%  ------ ||
|| sparse_product                       :  3704      161.63s   3.525%  ------ ||
|| basis_dot_function_with_box          : 9.629M     260.05s   5.671%  ------ ||
|| fourier_apply_box                    : 90832      283.33s   6.179% 979.944 ||
|| edft_diag_ngwf_ham                   :   270      294.01s   6.412%  ------ ||
|| projectors_gradient_batch            :    64      299.93s   6.541%  ------ ||
|| integrals_locpot_mat_els_batch       :   392      375.98s   8.200%  ------ ||
|| density_fftbox_interpolate_multiply  : 19648      380.79s   8.305%  ------ ||
|| projectors_grad_precond_batch        :    64      440.73s   9.612%  ------ ||
|| density_batch_interp_deposit         :  1228      482.20s  10.516%  ------ ||
|| integrals_locpot_dbl_grid            :    98      531.68s  11.596%  ------ ||
|| edft_apply_smearing_operator         :   270      580.60s  12.662%  ------ ||
|| basis_add_function_to_box            : 26.97M     694.92s  15.156%  ------ ||
|| ngwf_gradient_build_batch            :    64      789.03s  17.208%  ------ ||
|| ngwf_gradient_batch                  :    64     1049.38s  22.886%  ------ ||
|| density_batch_row_sums               :  1228     1064.16s  23.208%  ------ ||
|| ngwf_gradient_lnv                    :    16     1081.24s  23.581%  ------ ||
|| density_on_dbl_grid                  :   307     1561.97s  34.065%  ------ ||
|| hamiltonian_lhxc_calculate           :   301     1677.09s  36.576%  ------ ||
|| edft_calculate                       :    16     2773.32s  60.484%  ------ ||
|| ngwf_cg_optimise                     :     1     4453.40s  97.125%  ------ ||
|| total_time                           :     1     4585.24s 100.000%  ------ ||
================================================================================
Overhead of generating timer report: 
- 0 ms averaging over threads,
- 5 ms ensuring consistency across MPI ranks,
- 0 ms printing in order.

Job completed: 26-02-2020 04:35 (-0000)

