 +---------------------------------------------------------------+
 |                                                               |
 |        ####### #     # ####### ####### ####### ######         |
 |        #     # ##    # #          #    #       #     #        |
 |        #     # # #   # #          #    #       #     #        |
 |        #     # #  #  # #####      #    #####   ######         |
 |        #     # #   # # #          #    #       #              |
 |        #     # #    ## #          #    #       #              |
 |        ####### #     # #######    #    ####### #              |
 |                                                               |
 |        Linear-Scaling Ab Initio Total Energy Program          |
 |                                                               |
 |          Release for academic collaborators of ODG            |
 |                                             Version 5.3.2.12  |
 |                                                               |
 +---------------------------------------------------------------+
 |                                                               |
 |  Authors:                                                     |
 |  Jacek Dziedzic, Peter D. Haynes, Nicholas D. M. Hine,        |
 |  Arash. A. Mostofi, Mike C. Payne and Chris-Kriton Skylaris   |
 |                                                               |
 |  Contributors:                                                |
 |  J. Aarons, L. Andrinopoulos, P. W. Avraam, R. A. Bell,       |
 |  A. Bhandari, G. A. Bramley, R. J. Charlton, S. J. Clark,     |
 |  R. J. Clements, G. C. Constantinescu, F. Corsetti,           |
 |  N. Corsini, O. Dieguez, S. M. M. Dubois, K. K. B. Duff,      |
 |  J. M. Escartin, A. Greco, H. Helal, Q. O. Hill, L. P. Lee,   |
 |  J.-H. Li, E. B. Linscott, G. Moynihan, D. D. O`Regan,        |
 |  O. K. Okan, M. J. S. Phipps, C. J. Pickard,                  |
 |  J. C. A. Prentice, M. I. J. Probert, L. E. Ratcliff,         |
 |  M. Robinson, A. Ruiz Serrano, J. S. Spencer, E. W. Tait,     |
 |  G. Teobaldi, D. Turban, V. Vitale, K. A. Wilkinson,          |
 |  C. Weber, J. C. Womack, N. Yeung and T. J. Zuehlsdorff       |
 |                                                               |
 |                                   Copyright (c) 2004-2020     |
 |                                                               |
 |  Please cite:                                                 |
 |  "Introducing ONETEP: Linear-scaling density functional       |
 |   simulations on parallel computers".                         |
 |   C.-K. Skylaris, P. D. Haynes, A. A. Mostofi, M. C. Payne.   |
 |   J. Chem. Phys. 122 084119 (2005).                           |
 |                                                               |
 |          in all publications arising from your use of ONETEP. |
 |                                                               |
 +---------------------------------------------------------------+
 |                                                               |
 |   ONETEP is based on developments described in the following  |
 |   publications:                                               |
 |                                                               |
 |  "Nonorthogonal generalized Wannier function pseudopotential  |
 |   plane-wave method".                                         |
 |   C.-K. Skylaris, A. A. Mostofi, P. D. Haynes, O. Dieguez,    |
 |   M. C. Payne.                                                |
 |   Phys. Rev. B 66 035119 (2002).                              |
 |                                                               |
 |  "Preconditioned iterative minimization for linear-scaling    |
 |   electronic structure calculations".                         |
 |   A. A. Mostofi, P. D. Haynes, C.-K. Skylaris, M. C. Payne.   |
 |   J. Chem. Phys. 119(17), pp.8842-8848 (2003).                |
 |                                                               |
 |  "Total-energy calculations on a real space grid with         |
 |   localized functions and a plane-wave basis".                |
 |   A. A. Mostofi, C.-K. Skylaris, P. D. Haynes, M. C. Payne.   |
 |   Comput. Phys. Commun. 147, pp.788-802 (2002).               |
 |                                                               |
 |  "Accurate kinetic energy evaluation in electronic structure  |
 |   calculations with localized functions on real space grids"  |
 |   C.-K. Skylaris, A. A. Mostofi, P. D. Haynes, C. J. Pickard, |
 |   M. C. Payne.                                                |
 |   Comput. Phys. Commun. 140, pp.315-322 (2001).               |
 |                                                               |
 |  "Accurate ionic forces and geometry optimization in linear-  |
 |   scaling density-functional theory with local orbitals"      |
 |   N. D. M. Hine, M. Robinson, P. D. Haynes, C.-K. Skylaris,   |
 |   M. C. Payne, and A. A. Mostofi.                             |
 |   Phys. Rev. B 83 195102 (2011).                              |
 |                                                               |
 +---------------------------------------------------------------+

Job started: 26-02-2020 03:22 (-0000)
 
Reading parameters from file "3.22252712_GO_manual_4x64graphite.dat" ...

WARNING: "cutoff_energy" not specified, but "psinc_spacing" specified.
         Using the latter to set the KE cutoff energy to  732.32021eV,
         thus *overriding* the default.

... done

If your calculation crashes here, before "Checking processes and threads..."
is displayed, then your stack size is insufficient.
If so, use "ulimit -s unlimited" at runtime.
You can disable this check with "check_stack_size F".

Checking processes and threads...
   Determining the default number of threads...
      No default threads set at compilation time: defaulting to 1.
      OpenMP library call suggests 4 threads.
      Hybrid MPI-OpenMP compilation detected.
      Number of MPI processes > 1.
      OMP_NUM_THREADS environment variable present and
      its value matches the one obtained from the OpenMP library call.
      Using this value as default.
      Default threads: 4
      Default applies to threads_max and threads_num_fftboxes.
      Settings in the input file override this default.
   ... done

   Running with 40 MPI processes.
   There are 10 MPI processes running on the same node as the root process.
   Each MPI process is using: 
               1 threads for simulation cell FFTs.
               1 threads for parallel FFT box operations.
               4 threads for loops over batched FFT box operations.
               4 threads in other parallel regions.
... done

Basic input checks...
Resetting ngwf_cg_rotate to TRUE for EDFT calculations
... done

Reading geometry and species blocks from file "3.22252712_GO_manual_4x64graphite.dat" ...
    
  PSINC grid spacing along a1 set to   0.511215680000a0 from input file.
  PSINC grid spacing along a2 set to   0.531284090000a0 from input file.
  PSINC grid spacing along a3 set to   0.507475510000a0 from input file.
  Number of PPD points along a3 set to 1.  This is 
  the default value, it may have been provided also in the input file.
... done
 Writing xyz coordinates to file "3.22252712_GO_manual_4x64graphite.xyz" ... done


--------------------------------------------------------------------------------
---------------------------------- INPUT FILE ----------------------------------
--------------------------------------------------------------------------------

task : singlepoint                                                              
do_properties : true                                                            
dx_format T                                                                     
edft T                                                                          
output_detail VERBOSE                                                           
write_xyz T                                                                     
xc_functional VDWDF2                                                            
PSINC_SPACING 0.51121568 0.53128409 0.50747551                                  
paw T                                                                           
pdos_max_l = 2                                                                  
dos_smear  0.1 eV                                                               
popn_calculate T                                                                
PDOS_PSEUDOATOMIC T                                                             
PDOS_REDUCE_SWS F                                                               
PDOS_CONSTRUCT_BASIS F                                                          
PDOS_LOWDIN T                                                                   
PDOS_ORTH_ATOM_BLOCKS F                                                         
PDOS_LCAO_OPTIMIZE F                                                            
pdos_optados_output T                                                           
homo_plot 0                                                                     
lumo_plot 0                                                                     
homo_dens_plot -1                                                               
lumo_dens_plot -1                                                               
%BLOCK SPECIES                                                                  
C C 6 4 9.0                                                                     
%ENDBLOCK SPECIES                                                               
%BLOCK SPECIES_POT                                                              
C "~/pp/paw/c_pbe_abinit.paw"                                                   
%ENDBLOCK SPECIES_POT                                                           
%BLOCK SPECIES_ATOMIC_SET                                                       
C "SOLVE conf=2s2 2p2"                                                          
%ENDBLOCK SPECIES_ATOMIC_SET                                                    
%BLOCK LATTICE_CART                                                             
32.21  0.00  0.00                                                               
0.00 18.59  0.00                                                                
0.00  0.00 60.90                                                                
%ENDBLOCK LATTICE_CART                                                          
%BLOCK POSITIONS_ABS                                                            
C  0.00  0.00  3.04                                                             
C  0.00  0.00 15.22                                                             
C  0.00  0.00 27.40                                                             
C  0.00  0.00 39.58                                                             
C  0.00  0.00 51.76                                                             
C  0.00  4.65  3.04                                                             
C  0.00  4.65 15.22                                                             
C  0.00  4.65 27.40                                                             
C  0.00  4.65 39.58                                                             
C  0.00  4.65 51.76                                                             
C  4.03  2.32  3.04                                                             
C  4.03  2.32 15.22                                                             
C  4.03  2.32 27.40                                                             
C  4.03  2.32 39.58                                                             
C  4.03  2.32 51.76                                                             
C  8.05  0.00  3.04                                                             
C  8.05  0.00 15.22                                                             
C  8.05  0.00 27.40                                                             
C  8.05  0.00 39.58                                                             
C  8.05  0.00 51.76                                                             
C  0.00  9.30  3.04                                                             
C  0.00  9.30 15.22                                                             
C  0.00  9.30 27.40                                                             
C  0.00  9.30 39.58                                                             
C  0.00  9.30 51.76                                                             
C  4.03  6.97  3.04                                                             
C  4.03  6.97 15.22                                                             
C  4.03  6.97 27.40                                                             
C  4.03  6.97 39.58                                                             
C  4.03  6.97 51.76                                                             
C  8.05  4.65  3.04                                                             
C  8.05  4.65 15.22                                                             
C  8.05  4.65 27.40                                                             
C  8.05  4.65 39.58                                                             
C  8.05  4.65 51.76                                                             
C 12.08  2.32  3.04                                                             
C 12.08  2.32 15.22                                                             
C 12.08  2.32 27.40                                                             
C 12.08  2.32 39.58                                                             
C 12.08  2.32 51.76                                                             
C 16.10  0.00  3.04                                                             
C 16.10  0.00 15.22                                                             
C 16.10  0.00 27.40                                                             
C 16.10  0.00 39.58                                                             
C 16.10  0.00 51.76                                                             
C  0.00 13.95  3.04                                                             
C  0.00 13.95 15.22                                                             
C  0.00 13.95 27.40                                                             
C  0.00 13.95 39.58                                                             
C  0.00 13.95 51.76                                                             
C  4.03 11.62  3.04                                                             
C  4.03 11.62 15.22                                                             
C  4.03 11.62 27.40                                                             
C  4.03 11.62 39.58                                                             
C  4.03 11.62 51.76                                                             
C  8.05  9.30  3.04                                                             
C  8.05  9.30 15.22                                                             
C  8.05  9.30 27.40                                                             
C  8.05  9.30 39.58                                                             
C  8.05  9.30 51.76                                                             
C 12.08  6.97  3.04                                                             
C 12.08  6.97 15.22                                                             
C 12.08  6.97 27.40                                                             
C 12.08  6.97 39.58                                                             
C 12.08  6.97 51.76                                                             
C 16.10  4.65  3.04                                                             
C 16.10  4.65 15.22                                                             
C 16.10  4.65 27.40                                                             
C 16.10  4.65 39.58                                                             
C 16.10  4.65 51.76                                                             
C 20.13  2.32  3.04                                                             
C 20.13  2.32 15.22                                                             
C 20.13  2.32 27.40                                                             
C 20.13  2.32 39.58                                                             
C 20.13  2.32 51.76                                                             
C 24.16  0.00  3.04                                                             
C 24.16  0.00 15.22                                                             
C 24.16  0.00 27.40                                                             
C 24.16  0.00 39.58                                                             
C 24.16  0.00 51.76                                                             
C  4.03 16.27  3.04                                                             
C  4.03 16.27 15.22                                                             
C  4.03 16.27 27.40                                                             
C  4.03 16.27 39.58                                                             
C  4.03 16.27 51.76                                                             
C  8.05 13.95  3.04                                                             
C  8.05 13.95 15.22                                                             
C  8.05 13.95 27.40                                                             
C  8.05 13.95 39.58                                                             
C  8.05 13.95 51.76                                                             
C 12.08 11.62  3.04                                                             
C 12.08 11.62 15.22                                                             
C 12.08 11.62 27.40                                                             
C 12.08 11.62 39.58                                                             
C 12.08 11.62 51.76                                                             
C 16.10  9.30  3.04                                                             
C 16.10  9.30 15.22                                                             
C 16.10  9.30 27.40                                                             
C 16.10  9.30 39.58                                                             
C 16.10  9.30 51.76                                                             
C 20.13  6.97  3.04                                                             
C 20.13  6.97 15.22                                                             
C 20.13  6.97 27.40                                                             
C 20.13  6.97 39.58                                                             
C 20.13  6.97 51.76                                                             
C 24.16  4.65  3.04                                                             
C 24.16  4.65 15.22                                                             
C 24.16  4.65 27.40                                                             
C 24.16  4.65 39.58                                                             
C 24.16  4.65 51.76                                                             
C 28.18  2.32  3.04                                                             
C 28.18  2.32 15.22                                                             
C 28.18  2.32 27.40                                                             
C 28.18  2.32 39.58                                                             
C 28.18  2.32 51.76                                                             
C 12.08 16.27  3.04                                                             
C 12.08 16.27 15.22                                                             
C 12.08 16.27 27.40                                                             
C 12.08 16.27 39.58                                                             
C 12.08 16.27 51.76                                                             
C 16.10 13.95  3.04                                                             
C 16.10 13.95 15.22                                                             
C 16.10 13.95 27.40                                                             
C 16.10 13.95 39.58                                                             
C 16.10 13.95 51.76                                                             
C 20.13 11.62  3.04                                                             
C 20.13 11.62 15.22                                                             
C 20.13 11.62 27.40                                                             
C 20.13 11.62 39.58                                                             
C 20.13 11.62 51.76                                                             
C 24.16  9.30  3.04                                                             
C 24.16  9.30 15.22                                                             
C 24.16  9.30 27.40                                                             
C 24.16  9.30 39.58                                                             
C 24.16  9.30 51.76                                                             
C 28.18  6.97  3.04                                                             
C 28.18  6.97 15.22                                                             
C 28.18  6.97 27.40                                                             
C 28.18  6.97 39.58                                                             
C 28.18  6.97 51.76                                                             
C 20.13 16.27  3.04                                                             
C 20.13 16.27 15.22                                                             
C 20.13 16.27 27.40                                                             
C 20.13 16.27 39.58                                                             
C 20.13 16.27 51.76                                                             
C 24.16 13.95  3.04                                                             
C 24.16 13.95 15.22                                                             
C 24.16 13.95 27.40                                                             
C 24.16 13.95 39.58                                                             
C 24.16 13.95 51.76                                                             
C 28.18 11.62  3.04                                                             
C 28.18 11.62 15.22                                                             
C 28.18 11.62 27.40                                                             
C 28.18 11.62 39.58                                                             
C 28.18 11.62 51.76                                                             
C 28.18 16.27  3.04                                                             
C 28.18 16.27 15.22                                                             
C 28.18 16.27 27.40                                                             
C 28.18 16.27 39.58                                                             
C 28.18 16.27 51.76                                                             
C  0.00  0.00  9.13                                                             
C  0.00  0.00 21.31                                                             
C  0.00  0.00 33.49                                                             
C  0.00  0.00 45.67                                                             
C  0.00  0.00 57.85                                                             
C  0.00  4.65  9.13                                                             
C  0.00  4.65 21.31                                                             
C  0.00  4.65 33.49                                                             
C  0.00  4.65 45.67                                                             
C  0.00  4.65 57.85                                                             
C  4.03  2.32  9.13                                                             
C  4.03  2.32 21.31                                                             
C  4.03  2.32 33.49                                                             
C  4.03  2.32 45.67                                                             
C  4.03  2.32 57.85                                                             
C  8.05  0.00  9.13                                                             
C  8.05  0.00 21.31                                                             
C  8.05  0.00 33.49                                                             
C  8.05  0.00 45.67                                                             
C  8.05  0.00 57.85                                                             
C  0.00  9.30  9.13                                                             
C  0.00  9.30 21.31                                                             
C  0.00  9.30 33.49                                                             
C  0.00  9.30 45.67                                                             
C  0.00  9.30 57.85                                                             
C  4.03  6.97  9.13                                                             
C  4.03  6.97 21.31                                                             
C  4.03  6.97 33.49                                                             
C  4.03  6.97 45.67                                                             
C  4.03  6.97 57.85                                                             
C  8.05  4.65  9.13                                                             
C  8.05  4.65 21.31                                                             
C  8.05  4.65 33.49                                                             
C  8.05  4.65 45.67                                                             
C  8.05  4.65 57.85                                                             
C 12.08  2.32  9.13                                                             
C 12.08  2.32 21.31                                                             
C 12.08  2.32 33.49                                                             
C 12.08  2.32 45.67                                                             
C 12.08  2.32 57.85                                                             
C 16.10  0.00  9.13                                                             
C 16.10  0.00 21.31                                                             
C 16.10  0.00 33.49                                                             
C 16.10  0.00 45.67                                                             
C 16.10  0.00 57.85                                                             
C  0.00 13.95  9.13                                                             
C  0.00 13.95 21.31                                                             
C  0.00 13.95 33.49                                                             
C  0.00 13.95 45.67                                                             
C  0.00 13.95 57.85                                                             
C  4.03 11.62  9.13                                                             
C  4.03 11.62 21.31                                                             
C  4.03 11.62 33.49                                                             
C  4.03 11.62 45.67                                                             
C  4.03 11.62 57.85                                                             
C  8.05  9.30  9.13                                                             
C  8.05  9.30 21.31                                                             
C  8.05  9.30 33.49                                                             
C  8.05  9.30 45.67                                                             
C  8.05  9.30 57.85                                                             
C 12.08  6.97  9.13                                                             
C 12.08  6.97 21.31                                                             
C 12.08  6.97 33.49                                                             
C 12.08  6.97 45.67                                                             
C 12.08  6.97 57.85                                                             
C 16.10  4.65  9.13                                                             
C 16.10  4.65 21.31                                                             
C 16.10  4.65 33.49                                                             
C 16.10  4.65 45.67                                                             
C 16.10  4.65 57.85                                                             
C 20.13  2.32  9.13                                                             
C 20.13  2.32 21.31                                                             
C 20.13  2.32 33.49                                                             
C 20.13  2.32 45.67                                                             
C 20.13  2.32 57.85                                                             
C 24.16  0.00  9.13                                                             
C 24.16  0.00 21.31                                                             
C 24.16  0.00 33.49                                                             
C 24.16  0.00 45.67                                                             
C 24.16  0.00 57.85                                                             
C  4.03 16.27  9.13                                                             
C  4.03 16.27 21.31                                                             
C  4.03 16.27 33.49                                                             
C  4.03 16.27 45.67                                                             
C  4.03 16.27 57.85                                                             
C  8.05 13.95  9.13                                                             
C  8.05 13.95 21.31                                                             
C  8.05 13.95 33.49                                                             
C  8.05 13.95 45.67                                                             
C  8.05 13.95 57.85                                                             
C 12.08 11.62  9.13                                                             
C 12.08 11.62 21.31                                                             
C 12.08 11.62 33.49                                                             
C 12.08 11.62 45.67                                                             
C 12.08 11.62 57.85                                                             
C 16.10  9.30  9.13                                                             
C 16.10  9.30 21.31                                                             
C 16.10  9.30 33.49                                                             
C 16.10  9.30 45.67                                                             
C 16.10  9.30 57.85                                                             
C 20.13  6.97  9.13                                                             
C 20.13  6.97 21.31                                                             
C 20.13  6.97 33.49                                                             
C 20.13  6.97 45.67                                                             
C 20.13  6.97 57.85                                                             
C 24.16  4.65  9.13                                                             
C 24.16  4.65 21.31                                                             
C 24.16  4.65 33.49                                                             
C 24.16  4.65 45.67                                                             
C 24.16  4.65 57.85                                                             
C 28.18  2.32  9.13                                                             
C 28.18  2.32 21.31                                                             
C 28.18  2.32 33.49                                                             
C 28.18  2.32 45.67                                                             
C 28.18  2.32 57.85                                                             
C 12.08 16.27  9.13                                                             
C 12.08 16.27 21.31                                                             
C 12.08 16.27 33.49                                                             
C 12.08 16.27 45.67                                                             
C 12.08 16.27 57.85                                                             
C 16.10 13.95  9.13                                                             
C 16.10 13.95 21.31                                                             
C 16.10 13.95 33.49                                                             
C 16.10 13.95 45.67                                                             
C 16.10 13.95 57.85                                                             
C 20.13 11.62  9.13                                                             
C 20.13 11.62 21.31                                                             
C 20.13 11.62 33.49                                                             
C 20.13 11.62 45.67                                                             
C 20.13 11.62 57.85                                                             
C 24.16  9.30  9.13                                                             
C 24.16  9.30 21.31                                                             
C 24.16  9.30 33.49                                                             
C 24.16  9.30 45.67                                                             
C 24.16  9.30 57.85                                                             
C 28.18  6.97  9.13                                                             
C 28.18  6.97 21.31                                                             
C 28.18  6.97 33.49                                                             
C 28.18  6.97 45.67                                                             
C 28.18  6.97 57.85                                                             
C 20.13 16.27  9.13                                                             
C 20.13 16.27 21.31                                                             
C 20.13 16.27 33.49                                                             
C 20.13 16.27 45.67                                                             
C 20.13 16.27 57.85                                                             
C 24.16 13.95  9.13                                                             
C 24.16 13.95 21.31                                                             
C 24.16 13.95 33.49                                                             
C 24.16 13.95 45.67                                                             
C 24.16 13.95 57.85                                                             
C 28.18 11.62  9.13                                                             
C 28.18 11.62 21.31                                                             
C 28.18 11.62 33.49                                                             
C 28.18 11.62 45.67                                                             
C 28.18 11.62 57.85                                                             
C 28.18 16.27  9.13                                                             
C 28.18 16.27 21.31                                                             
C 28.18 16.27 33.49                                                             
C 28.18 16.27 45.67                                                             
C 28.18 16.27 57.85                                                             
C  1.34  2.32  3.04                                                             
C  1.34  2.32 15.22                                                             
C  1.34  2.32 27.40                                                             
C  1.34  2.32 39.58                                                             
C  1.34  2.32 51.76                                                             
C  5.37  0.00  3.04                                                             
C  5.37  0.00 15.22                                                             
C  5.37  0.00 27.40                                                             
C  5.37  0.00 39.58                                                             
C  5.37  0.00 51.76                                                             
C  1.34  6.97  3.04                                                             
C  1.34  6.97 15.22                                                             
C  1.34  6.97 27.40                                                             
C  1.34  6.97 39.58                                                             
C  1.34  6.97 51.76                                                             
C  5.37  4.65  3.04                                                             
C  5.37  4.65 15.22                                                             
C  5.37  4.65 27.40                                                             
C  5.37  4.65 39.58                                                             
C  5.37  4.65 51.76                                                             
C  9.39  2.32  3.04                                                             
C  9.39  2.32 15.22                                                             
C  9.39  2.32 27.40                                                             
C  9.39  2.32 39.58                                                             
C  9.39  2.32 51.76                                                             
C 13.42  0.00  3.04                                                             
C 13.42  0.00 15.22                                                             
C 13.42  0.00 27.40                                                             
C 13.42  0.00 39.58                                                             
C 13.42  0.00 51.76                                                             
C  1.34 11.62  3.04                                                             
C  1.34 11.62 15.22                                                             
C  1.34 11.62 27.40                                                             
C  1.34 11.62 39.58                                                             
C  1.34 11.62 51.76                                                             
C  5.37  9.30  3.04                                                             
C  5.37  9.30 15.22                                                             
C  5.37  9.30 27.40                                                             
C  5.37  9.30 39.58                                                             
C  5.37  9.30 51.76                                                             
C  9.39  6.97  3.04                                                             
C  9.39  6.97 15.22                                                             
C  9.39  6.97 27.40                                                             
C  9.39  6.97 39.58                                                             
C  9.39  6.97 51.76                                                             
C 13.42  4.65  3.04                                                             
C 13.42  4.65 15.22                                                             
C 13.42  4.65 27.40                                                             
C 13.42  4.65 39.58                                                             
C 13.42  4.65 51.76                                                             
C 17.45  2.32  3.04                                                             
C 17.45  2.32 15.22                                                             
C 17.45  2.32 27.40                                                             
C 17.45  2.32 39.58                                                             
C 17.45  2.32 51.76                                                             
C 21.47  0.00  3.04                                                             
C 21.47  0.00 15.22                                                             
C 21.47  0.00 27.40                                                             
C 21.47  0.00 39.58                                                             
C 21.47  0.00 51.76                                                             
C  1.34 16.27  3.04                                                             
C  1.34 16.27 15.22                                                             
C  1.34 16.27 27.40                                                             
C  1.34 16.27 39.58                                                             
C  1.34 16.27 51.76                                                             
C  5.37 13.95  3.04                                                             
C  5.37 13.95 15.22                                                             
C  5.37 13.95 27.40                                                             
C  5.37 13.95 39.58                                                             
C  5.37 13.95 51.76                                                             
C  9.39 11.62  3.04                                                             
C  9.39 11.62 15.22                                                             
C  9.39 11.62 27.40                                                             
C  9.39 11.62 39.58                                                             
C  9.39 11.62 51.76                                                             
C 13.42  9.30  3.04                                                             
C 13.42  9.30 15.22                                                             
C 13.42  9.30 27.40                                                             
C 13.42  9.30 39.58                                                             
C 13.42  9.30 51.76                                                             
C 17.45  6.97  3.04                                                             
C 17.45  6.97 15.22                                                             
C 17.45  6.97 27.40                                                             
C 17.45  6.97 39.58                                                             
C 17.45  6.97 51.76                                                             
C 21.47  4.65  3.04                                                             
C 21.47  4.65 15.22                                                             
C 21.47  4.65 27.40                                                             
C 21.47  4.65 39.58                                                             
C 21.47  4.65 51.76                                                             
C 25.50  2.32  3.04                                                             
C 25.50  2.32 15.22                                                             
C 25.50  2.32 27.40                                                             
C 25.50  2.32 39.58                                                             
C 25.50  2.32 51.76                                                             
C 29.52  0.00  3.04                                                             
C 29.52  0.00 15.22                                                             
C 29.52  0.00 27.40                                                             
C 29.52  0.00 39.58                                                             
C 29.52  0.00 51.76                                                             
C  9.39 16.27  3.04                                                             
C  9.39 16.27 15.22                                                             
C  9.39 16.27 27.40                                                             
C  9.39 16.27 39.58                                                             
C  9.39 16.27 51.76                                                             
C 13.42 13.95  3.04                                                             
C 13.42 13.95 15.22                                                             
C 13.42 13.95 27.40                                                             
C 13.42 13.95 39.58                                                             
C 13.42 13.95 51.76                                                             
C 17.45 11.62  3.04                                                             
C 17.45 11.62 15.22                                                             
C 17.45 11.62 27.40                                                             
C 17.45 11.62 39.58                                                             
C 17.45 11.62 51.76                                                             
C 21.47  9.30  3.04                                                             
C 21.47  9.30 15.22                                                             
C 21.47  9.30 27.40                                                             
C 21.47  9.30 39.58                                                             
C 21.47  9.30 51.76                                                             
C 25.50  6.97  3.04                                                             
C 25.50  6.97 15.22                                                             
C 25.50  6.97 27.40                                                             
C 25.50  6.97 39.58                                                             
C 25.50  6.97 51.76                                                             
C 29.52  4.65  3.04                                                             
C 29.52  4.65 15.22                                                             
C 29.52  4.65 27.40                                                             
C 29.52  4.65 39.58                                                             
C 29.52  4.65 51.76                                                             
C 17.45 16.27  3.04                                                             
C 17.45 16.27 15.22                                                             
C 17.45 16.27 27.40                                                             
C 17.45 16.27 39.58                                                             
C 17.45 16.27 51.76                                                             
C 21.47 13.95  3.04                                                             
C 21.47 13.95 15.22                                                             
C 21.47 13.95 27.40                                                             
C 21.47 13.95 39.58                                                             
C 21.47 13.95 51.76                                                             
C 25.50 11.62  3.04                                                             
C 25.50 11.62 15.22                                                             
C 25.50 11.62 27.40                                                             
C 25.50 11.62 39.58                                                             
C 25.50 11.62 51.76                                                             
C 29.52  9.30  3.04                                                             
C 29.52  9.30 15.22                                                             
C 29.52  9.30 27.40                                                             
C 29.52  9.30 39.58                                                             
C 29.52  9.30 51.76                                                             
C 25.50 16.27  3.04                                                             
C 25.50 16.27 15.22                                                             
C 25.50 16.27 27.40                                                             
C 25.50 16.27 39.58                                                             
C 25.50 16.27 51.76                                                             
C 29.52 13.95  3.04                                                             
C 29.52 13.95 15.22                                                             
C 29.52 13.95 27.40                                                             
C 29.52 13.95 39.58                                                             
C 29.52 13.95 51.76                                                             
C  2.68  0.00  9.13                                                             
C  2.68  0.00 21.31                                                             
C  2.68  0.00 33.49                                                             
C  2.68  0.00 45.67                                                             
C  2.68  0.00 57.85                                                             
C  2.68  4.65  9.13                                                             
C  2.68  4.65 21.31                                                             
C  2.68  4.65 33.49                                                             
C  2.68  4.65 45.67                                                             
C  2.68  4.65 57.85                                                             
C  6.71  2.32  9.13                                                             
C  6.71  2.32 21.31                                                             
C  6.71  2.32 33.49                                                             
C  6.71  2.32 45.67                                                             
C  6.71  2.32 57.85                                                             
C 10.74  0.00  9.13                                                             
C 10.74  0.00 21.31                                                             
C 10.74  0.00 33.49                                                             
C 10.74  0.00 45.67                                                             
C 10.74  0.00 57.85                                                             
C  2.68  9.30  9.13                                                             
C  2.68  9.30 21.31                                                             
C  2.68  9.30 33.49                                                             
C  2.68  9.30 45.67                                                             
C  2.68  9.30 57.85                                                             
C  6.71  6.97  9.13                                                             
C  6.71  6.97 21.31                                                             
C  6.71  6.97 33.49                                                             
C  6.71  6.97 45.67                                                             
C  6.71  6.97 57.85                                                             
C 10.74  4.65  9.13                                                             
C 10.74  4.65 21.31                                                             
C 10.74  4.65 33.49                                                             
C 10.74  4.65 45.67                                                             
C 10.74  4.65 57.85                                                             
C 14.76  2.32  9.13                                                             
C 14.76  2.32 21.31                                                             
C 14.76  2.32 33.49                                                             
C 14.76  2.32 45.67                                                             
C 14.76  2.32 57.85                                                             
C 18.79  0.00  9.13                                                             
C 18.79  0.00 21.31                                                             
C 18.79  0.00 33.49                                                             
C 18.79  0.00 45.67                                                             
C 18.79  0.00 57.85                                                             
C  2.68 13.95  9.13                                                             
C  2.68 13.95 21.31                                                             
C  2.68 13.95 33.49                                                             
C  2.68 13.95 45.67                                                             
C  2.68 13.95 57.85                                                             
C  6.71 11.62  9.13                                                             
C  6.71 11.62 21.31                                                             
C  6.71 11.62 33.49                                                             
C  6.71 11.62 45.67                                                             
C  6.71 11.62 57.85                                                             
C 10.74  9.30  9.13                                                             
C 10.74  9.30 21.31                                                             
C 10.74  9.30 33.49                                                             
C 10.74  9.30 45.67                                                             
C 10.74  9.30 57.85                                                             
C 14.76  6.97  9.13                                                             
C 14.76  6.97 21.31                                                             
C 14.76  6.97 33.49                                                             
C 14.76  6.97 45.67                                                             
C 14.76  6.97 57.85                                                             
C 18.79  4.65  9.13                                                             
C 18.79  4.65 21.31                                                             
C 18.79  4.65 33.49                                                             
C 18.79  4.65 45.67                                                             
C 18.79  4.65 57.85                                                             
C 22.81  2.32  9.13                                                             
C 22.81  2.32 21.31                                                             
C 22.81  2.32 33.49                                                             
C 22.81  2.32 45.67                                                             
C 22.81  2.32 57.85                                                             
C 26.84  0.00  9.13                                                             
C 26.84  0.00 21.31                                                             
C 26.84  0.00 33.49                                                             
C 26.84  0.00 45.67                                                             
C 26.84  0.00 57.85                                                             
C  6.71 16.27  9.13                                                             
C  6.71 16.27 21.31                                                             
C  6.71 16.27 33.49                                                             
C  6.71 16.27 45.67                                                             
C  6.71 16.27 57.85                                                             
C 10.74 13.95  9.13                                                             
C 10.74 13.95 21.31                                                             
C 10.74 13.95 33.49                                                             
C 10.74 13.95 45.67                                                             
C 10.74 13.95 57.85                                                             
C 14.76 11.62  9.13                                                             
C 14.76 11.62 21.31                                                             
C 14.76 11.62 33.49                                                             
C 14.76 11.62 45.67                                                             
C 14.76 11.62 57.85                                                             
C 18.79  9.30  9.13                                                             
C 18.79  9.30 21.31                                                             
C 18.79  9.30 33.49                                                             
C 18.79  9.30 45.67                                                             
C 18.79  9.30 57.85                                                             
C 22.81  6.97  9.13                                                             
C 22.81  6.97 21.31                                                             
C 22.81  6.97 33.49                                                             
C 22.81  6.97 45.67                                                             
C 22.81  6.97 57.85                                                             
C 26.84  4.65  9.13                                                             
C 26.84  4.65 21.31                                                             
C 26.84  4.65 33.49                                                             
C 26.84  4.65 45.67                                                             
C 26.84  4.65 57.85                                                             
C 30.86  2.32  9.13                                                             
C 30.86  2.32 21.31                                                             
C 30.86  2.32 33.49                                                             
C 30.86  2.32 45.67                                                             
C 30.86  2.32 57.85                                                             
C 14.76 16.27  9.13                                                             
C 14.76 16.27 21.31                                                             
C 14.76 16.27 33.49                                                             
C 14.76 16.27 45.67                                                             
C 14.76 16.27 57.85                                                             
C 18.79 13.95  9.13                                                             
C 18.79 13.95 21.31                                                             
C 18.79 13.95 33.49                                                             
C 18.79 13.95 45.67                                                             
C 18.79 13.95 57.85                                                             
C 22.81 11.62  9.13                                                             
C 22.81 11.62 21.31                                                             
C 22.81 11.62 33.49                                                             
C 22.81 11.62 45.67                                                             
C 22.81 11.62 57.85                                                             
C 26.84  9.30  9.13                                                             
C 26.84  9.30 21.31                                                             
C 26.84  9.30 33.49                                                             
C 26.84  9.30 45.67                                                             
C 26.84  9.30 57.85                                                             
C 30.86  6.97  9.13                                                             
C 30.86  6.97 21.31                                                             
C 30.86  6.97 33.49                                                             
C 30.86  6.97 45.67                                                             
C 30.86  6.97 57.85                                                             
C 22.81 16.27  9.13                                                             
C 22.81 16.27 21.31                                                             
C 22.81 16.27 33.49                                                             
C 22.81 16.27 45.67                                                             
C 22.81 16.27 57.85                                                             
C 26.84 13.95  9.13                                                             
C 26.84 13.95 21.31                                                             
C 26.84 13.95 33.49                                                             
C 26.84 13.95 45.67                                                             
C 26.84 13.95 57.85                                                             
C 30.86 11.62  9.13                                                             
C 30.86 11.62 21.31                                                             
C 30.86 11.62 33.49                                                             
C 30.86 11.62 45.67                                                             
C 30.86 11.62 57.85                                                             
C 30.86 16.27  9.13                                                             
C 30.86 16.27 21.31                                                             
C 30.86 16.27 33.49                                                             
C 30.86 16.27 45.67                                                             
C 30.86 16.27 57.85                                                             
%ENDBLOCK POSITIONS_ABS                                                         

--------------------------------------------------------------------------------
-------------------------------- END INPUT FILE --------------------------------
--------------------------------------------------------------------------------


 
<<<<<<<<<<<<<<<<<<<<<<<<<<<<<<<<< Full system >>>>>>>>>>>>>>>>>>>>>>>>>>>>>>>>>>
<<<<<<<<<<<<<<<<<<<<<<<<<<< PAW Dataset information >>>>>>>>>>>>>>>>>>>>>>>>>>>
File: ~/pp/paw/c_pbe_abinit.paw; rc = 1.25 bohr; shape type =  3; rshape = 1.25 bohr;
  Atomic number:  6;  ionic charge:  4.000000
    Partial Wave 1: l = 0
    Partial Wave 2: l = 0
    Partial Wave 3: l = 1
    Partial Wave 4: l = 1
  Core charge supplied for Nonlinear Core Corrections
<<<<<<<<<<<<<<<<<<<<<<<<<<<<<<<<<<<<<<< >>>>>>>>>>>>>>>>>>>>>>>>>>>>>>>>>>>>>>>

-------------------------- Atom counting information ---------------------------
Symbol    Natoms    Nngwfs    Nprojs
  C        640      2560      5120
.......   ......    ......    ......
Totals:    640      2560      5120
--------------------------------------------------------------------------------

=============================== PSINC grid sizes ===============================
                      Simulation cell:   63 x  35 x 120
                              FFT-box:   63 x  35 x 117
                                  PPD:    7 x   5 x   1
Grid space d1=  0.511269841270a0 (KE cutoff=  29.06054Eh = 790.77748eV)
Grid space d2=  0.531142857143a0 (KE cutoff=  26.92659Eh = 732.70972eV)
Grid space d3=  0.507500000000a0 (KE cutoff=  29.49388Eh = 802.56931eV)
================================================================================
  
WARNING in cell_grid_distribute:
Average of less than one 23-slab per node, so workload cannot be
equally balanced between nodes.

********************* Fourier parallelisation information **********************
       Coarse grid (whole simulation cell) dimensions:     63    35   120
          Real-space ('12') slabs/node (min max mean):      3     3     3
         Recip-space ('23') slabs/node (min max mean):      0     1     0
********************************************************************************

********************* Fourier parallelisation information **********************
       Double grid (whole simulation cell) dimensions:    126    70   240
          Real-space ('12') slabs/node (min max mean):      6     6     6
         Recip-space ('23') slabs/node (min max mean):      1     2     1
********************************************************************************

Atom SCF Calculation for C  : Z (AE atom) =   6 : Z (PS atom) =   4
Config String: 2s2 2p2
Orbitals (num,occ):  2     2.00 2.00
Orbitals   (num,l):  2        0    1
Real-space Grid (nr,dr,rmax): 1293    0.0069659443    9.0000000000
Spherical Bessel Basis (nsws,lmax,cutoff):   37    2  161.4736382572
Confining potential (l,width,scale):  0    3.0000000000  100.0000000000
Confining potential (l,width,scale):  1    3.0000000000  100.0000000000
  1         -5.4691149987   -1.3647045835    4.5135257941   -1.6713568800
  2         -5.5214542834   -1.4154291535    4.4635199061   -1.6585170582
  3         -5.5221055910   -1.4439161209    4.4342087028   -1.6520281659
  4         -5.5287901521   -1.4522301802    4.4259176063   -1.6507873939
  5         -5.5308251003   -1.4557840400    4.4224142384   -1.6502632738
  6         -5.5317252094   -1.4571386008    4.4211068249   -1.6500892907
  7         -5.5320765973   -1.4576738924    4.4205997642   -1.6500256779
  8         -5.5322192721   -1.4578833190    4.4204056023   -1.6500032912
  9         -5.5322765240   -1.4579657561    4.4203308649   -1.6499954152
 10         -5.5322995843   -1.4579982639    4.4203020904   -1.6499927055
 11         -5.5323088576   -1.4580111317    4.4202909828   -1.6499917962
 12         -5.5323125859   -1.4580162439    4.4202866844   -1.6499915030
 13         -5.5323140836   -1.4580182832    4.4202850159   -1.6499914143
 14         -5.5323146847   -1.4580191002    4.4202843659   -1.6499913905
 15         -5.5323149258   -1.4580194290    4.4202841117   -1.6499913858
 16         -5.5323150224   -1.4580195619    4.4202840119   -1.6499913859
Atom SCF converged after  16 iterations to a total energy of     -5.53231502

Determining parallel strategy ...
... using space-filling curve
... NGWF load balancing: max     64;  min     64;  average     64
... Projector load balancing: max    128;  min    128;  average    128
... done
Calculating Ewald energy ...
              Ewald: real-space energy =    9522.944987
        Ewald: reciprocal-space energy =       0.045360
         Ewald: (sum_charge)**2 Energy =   11466.410210
         Ewald: (sum_charge**2) Energy =     906.499321
                          Ewald Energy =   -2849.919183
Basis initialisation ...... NGWF spheres initialised
... Projector spheres initialised
... NGWF tight boxes initialised
... Projector tight boxes initialised
... Tight-boxes gathered
... NGWF basis size (local,global):     692596  27862400
... PAW projector initialisation
... done

============================= Charge Augmentation ==============================
                           Aug box size:   11 x  11 x  11
================================================================================

========================== Sparse matrix information ===========================
                        Overlap matrix filling:  44.38%
                        Density kernel filling: 100.00%
              NGWF-Proj overlap matrix filling:  13.12%
                    Aug Overlap matrix filling:  47.81%
                    Hamiltonian matrix filling:  47.81%
                  NGWF diagonal matrix filling:   0.16%
                             KS matrix filling: 100.00% 
                           KSKS matrix filling: 100.00% 
================================================================================

Sparse matrix initialisation ... done
NGWF initialisation ...... done
============ Calculation of NGWF S^-1 using Hotelling algorithm ================ 
         Iteration  |  Frobenius norm and Maximum abs value    (of I-S*S_n^-1)   
               1       0.49217923E+02     0.97801457E+00
               2       0.48097350E+02     0.95780710E+00
               3       0.46382764E+02     0.92175887E+00
               4       0.44109089E+02     0.86240206E+00
               5       0.41347379E+02     0.77372585E+00
               6       0.38070331E+02     0.68978649E+00
               7       0.34534389E+02     0.63954926E+00
               8       0.31123140E+02     0.59753781E+00
               9       0.27592779E+02     0.55485295E+00
              10       0.23230344E+02     0.49083899E+00
              11       0.17536524E+02     0.38775901E+00
              12       0.10802872E+02     0.24654509E+00
              13       0.46493715E+01     0.10518720E+00
              14       0.10249288E+01     0.21598870E-01
              15       0.58836175E-01     0.11009971E-02
              16       0.23755614E-03     0.35817011E-05
              17       0.56644256E-08     0.54555471E-10
              18       0.79028190E-13     0.44408921E-14
================================================================================
Calculating core density ...
================================= Core Density =================================
               Core den box size:   21 x  21 x  21
================================================================================
 ... done
Up spin density kernel initialisation ...... done

Writing density kernel to file "3.22252712_GO_manual_4x64graphite.dkn" ... done

>>> Optimising kernel for current NGWFs:

--------------------------- Ensemble-DFT optimisation --------------------------
Running ScaLAPACK on   40 processor(s).

--------------------------------------------------------------------------------
  Iter                              Commutator    Free_energy(A=E-TS)     DeltaA
#    0                          0.000049185405   -3682.61654489902367  -3.68E+03

Step                       =       0.381966011250
Energy                     =   -3682.616498340541
Entropy (-TS)              =      -0.000046558866
Free energy (A=E-TS)       =   -3682.616544899024
Est. 0K Energy 0.5*(E+A)   =   -3682.616521619782
Residual Non-orthogonality =       0.000000000000
Residual N_electrons       =       0.000000000384

Spin          Integrated_Ne            Fermi_level     Delta_Fermi_level
   1      2559.999999998308         0.226738161990              2.27E-01

                           Spin 1          
     Orb      H-eigenvalues     Occupancies
       1 |    -0.4902373872    1.0000000000 | 
                          ------
    1276 |     0.1943364857    0.9999639887 | 
    1277 |     0.1949487899    0.9999563075 | 
    1278 |     0.1949487899    0.9999563075 | 
    1279 |     0.1954224498    0.9999492587 | 
    1280 |     0.1960244272    0.9999386363 | 
                 - Gap at zero temperature -
    1281 |     0.2598694909    0.0000286008 | 
    1282 |     0.2598694909    0.0000286008 | 
    1283 |     0.2599426027    0.0000279481 | 
    1284 |     0.2601041045    0.0000265586 | 
    1285 |     0.2601041045    0.0000265586 | 
                          ------
    2560 |     1.0468212858    0.0000000000 | 

                       |  Abs_value |  Threshold | Converged
     Delta_Free_energy |   3.68E+03 |   1.00E-06 |        No
     Delta_Energy      |   3.68E+03 |   1.00E-04 |        No
     Delta_Entropy     |   4.66E-05 |   1.00E-04 |       Yes
     Commutator        |   4.92E-05 |   1.00E-05 |        No
     Delta_Fermi_level |   2.27E-01 |   1.00E-03 |        No

  Line search of the free energy minimum:
  Step_type        Step             Free_energy   Predicted_free_energy
.   Initial    0.000000    -3682.61654489902367
.    Trial1    0.381966    -3682.61895212760783
.    Trial2    0.618034    -3682.61901304444791
. Quadratic    0.513193    -3682.61911928263726    -3682.61912053860851

--------------------------------------------------------------------------------
  Iter                              Commutator    Free_energy(A=E-TS)     DeltaA
#    1                          0.000025958749   -3682.61911928263726  -2.57E-03

Step                       =       0.513193098848
Energy                     =   -3682.619075327440
Entropy (-TS)              =      -0.000043955764
Free energy (A=E-TS)       =   -3682.619119282637
Est. 0K Energy 0.5*(E+A)   =   -3682.619097305039
Residual Non-orthogonality =       0.000000000000
Residual N_electrons       =       0.000000000568

Spin          Integrated_Ne            Fermi_level     Delta_Fermi_level
   1      2559.999999997534         0.230200561718              3.46E-03

                           Spin 1          
     Orb      H-eigenvalues     Occupancies
       1 |    -0.4883916620    1.0000000000 | 
                          ------
    1276 |     0.1976864870    0.9999652443 | 
    1277 |     0.1981545317    0.9999597088 | 
    1278 |     0.1981545317    0.9999597088 | 
    1279 |     0.1987931230    0.9999507073 | 
    1280 |     0.1992511456    0.9999430371 | 
                 - Gap at zero temperature -
    1281 |     0.2635032288    0.0000270945 | 
    1282 |     0.2635032288    0.0000270945 | 
    1283 |     0.2635992671    0.0000262852 | 
    1284 |     0.2638513749    0.0000242738 | 
    1285 |     0.2638513749    0.0000242738 | 
                          ------
    2560 |     1.0519940255    0.0000000000 | 

                       |  Abs_value |  Threshold | Converged
     Delta_Free_energy |   2.57E-03 |   1.00E-06 |        No
     Delta_Energy      |   2.58E-03 |   1.00E-04 |        No
     Delta_Entropy     |   2.60E-06 |   1.00E-04 |       Yes
     Commutator        |   2.60E-05 |   1.00E-05 |        No
     Delta_Fermi_level |   3.46E-03 |   1.00E-03 |        No

  Line search of the free energy minimum:
  Step_type        Step             Free_energy   Predicted_free_energy
.   Initial    0.000000    -3682.61911928263726
.    Trial1    0.513193    -3682.61929549612751
.    Trial2    0.699137    -3682.61840054382083
. Quadratic    0.279874    -3682.61969946766249    -3682.61969699365318

--------------------------------------------------------------------------------
  Iter                              Commutator    Free_energy(A=E-TS)     DeltaA
#    2                          0.000016261258   -3682.61969946766249  -5.80E-04

Step                       =       0.279874475632
Energy                     =   -3682.619656301402
Entropy (-TS)              =      -0.000043166568
Free energy (A=E-TS)       =   -3682.619699467662
Est. 0K Energy 0.5*(E+A)   =   -3682.619677884532
Residual Non-orthogonality =       0.000000000000
Residual N_electrons       =       0.000000000307

Spin          Integrated_Ne            Fermi_level     Delta_Fermi_level
   1      2559.999999998669         0.231084869628              8.84E-04

                           Spin 1          
     Orb      H-eigenvalues     Occupancies
       1 |    -0.4879093862    1.0000000000 | 
                          ------
    1276 |     0.1984839951    0.9999661840 | 
    1277 |     0.1989996886    0.9999602038 | 
    1278 |     0.1989996886    0.9999602038 | 
    1279 |     0.1995845779    0.9999521315 | 
    1280 |     0.2000900033    0.9999438487 | 
                 - Gap at zero temperature -
    1281 |     0.2644583487    0.0000264954 | 
    1282 |     0.2644583487    0.0000264954 | 
    1283 |     0.2645516265    0.0000257264 | 
    1284 |     0.2647866729    0.0000238861 | 
    1285 |     0.2647866729    0.0000238861 | 
                          ------
    2560 |     1.0533494118    0.0000000000 | 

                       |  Abs_value |  Threshold | Converged
     Delta_Free_energy |   5.80E-04 |   1.00E-06 |        No
     Delta_Energy      |   5.81E-04 |   1.00E-04 |        No
     Delta_Entropy     |   7.89E-07 |   1.00E-04 |       Yes
     Commutator        |   1.63E-05 |   1.00E-05 |        No
     Delta_Fermi_level |   8.84E-04 |   1.00E-03 |       Yes

  Line search of the free energy minimum:
  Step_type        Step             Free_energy   Predicted_free_energy
.   Initial    0.000000    -3682.61969946766249
.    Trial1    0.279874    -3682.61990928243176
.    Trial2    0.554938    -3682.61972598780994
. Quadratic    0.286833    -3682.61990939448833    -3682.61990940599344

--------------------------------------------------------------------------------
  Iter                              Commutator    Free_energy(A=E-TS)     DeltaA
#    3                          0.000011537283   -3682.61990939448833  -2.10E-04

Step                       =       0.286833125362
Energy                     =   -3682.619866780002
Entropy (-TS)              =      -0.000042614400
Free energy (A=E-TS)       =   -3682.619909394488
Est. 0K Energy 0.5*(E+A)   =   -3682.619888087245
Residual Non-orthogonality =       0.000000000000
Residual N_electrons       =      -0.000000000087

Spin          Integrated_Ne            Fermi_level     Delta_Fermi_level
   1      2560.000000000375         0.231744693659              6.60E-04

                           Spin 1          
     Orb      H-eigenvalues     Occupancies
       1 |    -0.4875459726    1.0000000000 | 
                          ------
    1276 |     0.1990955137    0.9999666959 | 
    1277 |     0.1996205573    0.9999606903 | 
    1278 |     0.1996205573    0.9999606903 | 
    1279 |     0.2001947589    0.9999528760 | 
    1280 |     0.2007094777    0.9999445596 | 
                 - Gap at zero temperature -
    1281 |     0.2651628139    0.0000261246 | 
    1282 |     0.2651628139    0.0000261246 | 
    1283 |     0.2652564481    0.0000253635 | 
    1284 |     0.2654842247    0.0000236033 | 
    1285 |     0.2654842247    0.0000236033 | 
                          ------
    2560 |     1.0543661957    0.0000000000 | 

                       |  Abs_value |  Threshold | Converged
     Delta_Free_energy |   2.10E-04 |   1.00E-06 |        No
     Delta_Energy      |   2.10E-04 |   1.00E-04 |        No
     Delta_Entropy     |   5.52E-07 |   1.00E-04 |       Yes
     Commutator        |   1.15E-05 |   1.00E-05 |        No
     Delta_Fermi_level |   6.60E-04 |   1.00E-03 |       Yes

  Line search of the free energy minimum:
  Step_type        Step             Free_energy   Predicted_free_energy
.   Initial    0.000000    -3682.61990939448833
.    Trial1    0.286833    -3682.62001042442716
.    Trial2    0.559239    -3682.61989441603873
. Quadratic    0.269994    -3682.62001082960705    -3682.62001081894141

--------------------------------------------------------------------------------
  Iter                              Commutator    Free_energy(A=E-TS)     DeltaA
#    4                          0.000008357927   -3682.62001082960705  -1.01E-04

Step                       =       0.269994201451
Energy                     =   -3682.619968575328
Entropy (-TS)              =      -0.000042253861
Free energy (A=E-TS)       =   -3682.620010829607
Est. 0K Energy 0.5*(E+A)   =   -3682.619989702468
Residual Non-orthogonality =       0.000000000000
Residual N_electrons       =      -0.000000000418

Spin          Integrated_Ne            Fermi_level     Delta_Fermi_level
   1      2560.000000001799         0.232188622726              4.44E-04

                           Spin 1          
[...]
 C   160 -- C   385       -0.09      5.37000
 C   159 -- C   384       -0.09      5.37000
 C   158 -- C   383       -0.09      5.37000
 C   157 -- C   382       -0.09      5.37000
 C   156 -- C   381       -0.09      5.37000
 C   155 -- C   355       -0.09      5.37000
 C   154 -- C   354       -0.09      5.37000
 C   153 -- C   353       -0.09      5.37000
 C   152 -- C   352       -0.09      5.37000
 C   151 -- C   351       -0.09      5.37000
 C   140 -- C   335       -0.09      5.37000
 C   139 -- C   334       -0.09      5.37000
 C   138 -- C   333       -0.09      5.37000
 C   137 -- C   332       -0.09      5.37000
 C   136 -- C   331       -0.09      5.37000
 C   115 -- C   325       -0.09      5.37000
 C   114 -- C   324       -0.09      5.37000
 C   113 -- C   323       -0.09      5.37000
 C   112 -- C   322       -0.09      5.37000
 C   111 -- C   321       -0.09      5.37000
 C   219 -- C   569       -0.09      5.37202
 C   218 -- C   568       -0.09      5.37202
 C   217 -- C   567       -0.09      5.37202
 C   216 -- C   566       -0.09      5.37202
 C   250 -- C   540       -0.09      5.37202
 C   249 -- C   539       -0.09      5.37202
 C   248 -- C   538       -0.09      5.37202
 C   247 -- C   537       -0.09      5.37202
 C   246 -- C   536       -0.09      5.37202
 C   220 -- C   570       -0.09      5.37202
 C   285 -- C   580       -0.09      5.37202
 C   284 -- C   579       -0.09      5.37202
 C   283 -- C   578       -0.09      5.37202
 C   282 -- C   577       -0.09      5.37202
 C   281 -- C   576       -0.09      5.37202
 C   260 -- C   605       -0.09      5.37202
 C   259 -- C   604       -0.09      5.37202
 C   258 -- C   603       -0.09      5.37202
 C   257 -- C   602       -0.09      5.37202
 C   256 -- C   601       -0.09      5.37202
 C   220 -- C   515       -0.09      5.37202
 C   219 -- C   514       -0.09      5.37202
 C   218 -- C   513       -0.09      5.37202
 C   217 -- C   512       -0.09      5.37202
 C   216 -- C   511       -0.09      5.37202
 C   195 -- C   540       -0.09      5.37202
 C   195 -- C   500       -0.09      5.37202
 C   194 -- C   539       -0.09      5.37202
 C   194 -- C   499       -0.09      5.37202
 C   193 -- C   538       -0.09      5.37202
 C   193 -- C   498       -0.09      5.37202
 C   192 -- C   537       -0.09      5.37202
 C   192 -- C   497       -0.09      5.37202
 C   191 -- C   536       -0.09      5.37202
 C   191 -- C   496       -0.09      5.37202
 C   180 -- C   515       -0.09      5.37202
 C   179 -- C   514       -0.09      5.37202
 C   178 -- C   513       -0.09      5.37202
 C   177 -- C   512       -0.09      5.37202
 C   176 -- C   511       -0.09      5.37202
 C    11 -- C   331       -0.09      5.37202
 C   205 -- C   550       -0.09      5.37202
 C   204 -- C   549       -0.09      5.37202
 C   203 -- C   548       -0.09      5.37202
 C   202 -- C   547       -0.09      5.37202
 C   201 -- C   546       -0.09      5.37202
 C    95 -- C   425       -0.09      5.37202
 C    95 -- C   365       -0.09      5.37202
 C    94 -- C   424       -0.09      5.37202
 C    94 -- C   364       -0.09      5.37202
 C    93 -- C   423       -0.09      5.37202
 C    93 -- C   363       -0.09      5.37202
 C    92 -- C   422       -0.09      5.37202
 C    92 -- C   362       -0.09      5.37202
 C    91 -- C   421       -0.09      5.37202
 C    91 -- C   361       -0.09      5.37202
 C    40 -- C   365       -0.09      5.37202
 C    39 -- C   364       -0.09      5.37202
 C    38 -- C   363       -0.09      5.37202
 C    37 -- C   362       -0.09      5.37202
 C    36 -- C   361       -0.09      5.37202
 C    15 -- C   335       -0.09      5.37202
 C    65 -- C   395       -0.09      5.37202
 C    65 -- C   345       -0.09      5.37202
 C    64 -- C   394       -0.09      5.37202
 C    64 -- C   344       -0.09      5.37202
 C    63 -- C   393       -0.09      5.37202
 C    30 -- C   355       -0.09      5.37202
 C    63 -- C   343       -0.09      5.37202
 C    62 -- C   392       -0.09      5.37202
 C    30 -- C   325       -0.09      5.37202
 C    14 -- C   334       -0.09      5.37202
 C    62 -- C   342       -0.09      5.37202
 C    61 -- C   391       -0.09      5.37202
 C    29 -- C   354       -0.09      5.37202
 C    61 -- C   341       -0.09      5.37202
 C    29 -- C   324       -0.09      5.37202
 C   260 -- C   550       -0.09      5.37202
 C   259 -- C   549       -0.09      5.37202
 C    28 -- C   353       -0.09      5.37202
 C   258 -- C   548       -0.09      5.37202
 C   257 -- C   547       -0.09      5.37202
 C   256 -- C   546       -0.09      5.37202
 C    28 -- C   323       -0.09      5.37202
 C    27 -- C   352       -0.09      5.37202
 C    13 -- C   333       -0.09      5.37202
 C    27 -- C   322       -0.09      5.37202
 C   120 -- C   395       -0.09      5.37202
 C    26 -- C   351       -0.09      5.37202
 C   119 -- C   394       -0.09      5.37202
 C   118 -- C   393       -0.09      5.37202
 C    55 -- C   335       -0.09      5.37202
 C   117 -- C   392       -0.09      5.37202
 C    26 -- C   321       -0.09      5.37202
 C   116 -- C   391       -0.09      5.37202
 C    54 -- C   334       -0.09      5.37202
 C    12 -- C   332       -0.09      5.37202
 C    53 -- C   333       -0.09      5.37202
 C   230 -- C   580       -0.09      5.37202
 C   230 -- C   525       -0.09      5.37202
 C   229 -- C   579       -0.09      5.37202
 C   229 -- C   524       -0.09      5.37202
 C   228 -- C   578       -0.09      5.37202
 C    52 -- C   332       -0.09      5.37202
 C   228 -- C   523       -0.09      5.37202
 C   227 -- C   577       -0.09      5.37202
 C   227 -- C   522       -0.09      5.37202
 C   226 -- C   576       -0.09      5.37202
 C   226 -- C   521       -0.09      5.37202
 C    51 -- C   331       -0.09      5.37202
 C    23 -- C   478       -0.09      5.37202
 C    49 -- C   469       -0.09      5.37202
 C    48 -- C   468       -0.09      5.37202
 C    47 -- C   467       -0.09      5.37202
 C    22 -- C   477       -0.09      5.37202
 C    46 -- C   466       -0.09      5.37202
 C    21 -- C   476       -0.09      5.37202
 C    85 -- C   355       -0.09      5.37202
 C    84 -- C   354       -0.09      5.37202
 C    83 -- C   353       -0.09      5.37202
 C    82 -- C   352       -0.09      5.37202
 C    81 -- C   351       -0.09      5.37202
 C    55 -- C   385       -0.09      5.37202
 C    54 -- C   384       -0.09      5.37202
 C    25 -- C   480       -0.09      5.37202
 C    53 -- C   383       -0.09      5.37202
 C    52 -- C   382       -0.09      5.37202
 C    51 -- C   381       -0.09      5.37202
 C    24 -- C   479       -0.09      5.37202
 C    50 -- C   470       -0.09      5.37202
 C    24 -- C   449       -0.09      5.37202
 C     6 -- C   416       -0.09      5.37202
 C    23 -- C   448       -0.09      5.37202
 C    22 -- C   447       -0.09      5.37202
 C    10 -- C   470       -0.09      5.37202
 C     5 -- C   450       -0.09      5.37202
 C    21 -- C   446       -0.09      5.37202
 C    10 -- C   420       -0.09      5.37202
 C     9 -- C   469       -0.09      5.37202
 C     9 -- C   419       -0.09      5.37202
 C     8 -- C   468       -0.09      5.37202
 C     4 -- C   449       -0.09      5.37202
 C   150 -- C   440       -0.09      5.37202
 C   149 -- C   439       -0.09      5.37202
 C   148 -- C   438       -0.09      5.37202
 C   147 -- C   437       -0.09      5.37202
 C     8 -- C   418       -0.09      5.37202
 C   146 -- C   436       -0.09      5.37202
 C     2 -- C   447       -0.09      5.37202
 C   135 -- C   460       -0.09      5.37202
 C     7 -- C   467       -0.09      5.37202
 C   134 -- C   459       -0.09      5.37202
 C   133 -- C   458       -0.09      5.37202
 C   132 -- C   457       -0.09      5.37202
 C   131 -- C   456       -0.09      5.37202
 C     7 -- C   417       -0.09      5.37202
 C     1 -- C   446       -0.09      5.37202
 C     6 -- C   466       -0.09      5.37202
 C    25 -- C   450       -0.09      5.37202
 C     3 -- C   448       -0.09      5.37202
 C   106 -- C   436       -0.09      5.37202
 C   106 -- C   376       -0.09      5.37202
 C    80 -- C   410       -0.09      5.37202
 C    79 -- C   409       -0.09      5.37202
 C    78 -- C   408       -0.09      5.37202
 C    77 -- C   407       -0.09      5.37202
 C    76 -- C   406       -0.09      5.37202
 C   135 -- C   410       -0.09      5.37202
 C   134 -- C   409       -0.09      5.37202
 C   133 -- C   408       -0.09      5.37202
 C   132 -- C   407       -0.09      5.37202
 C   131 -- C   406       -0.09      5.37202
 C   110 -- C   440       -0.09      5.37202
 C   110 -- C   380       -0.09      5.37202
 C   109 -- C   439       -0.09      5.37202
 C   109 -- C   379       -0.09      5.37202
 C   108 -- C   438       -0.09      5.37202
 C   108 -- C   378       -0.09      5.37202
 C   107 -- C   437       -0.09      5.37202
 C   107 -- C   377       -0.09      5.37202
 C   215 -- C   635       -0.09      5.38000
 C   214 -- C   634       -0.09      5.38000
 C   213 -- C   633       -0.09      5.38000
 C   212 -- C   632       -0.09      5.38000
 C   211 -- C   631       -0.09      5.38000
 C   190 -- C   620       -0.09      5.38000
 C   189 -- C   619       -0.09      5.38000
 C   188 -- C   618       -0.09      5.38000
 C   187 -- C   617       -0.09      5.38000
 C   186 -- C   616       -0.09      5.38000
 C   175 -- C   595       -0.09      5.38000
 C   174 -- C   594       -0.09      5.38000
 C   173 -- C   593       -0.09      5.38000
 C   172 -- C   592       -0.09      5.38000
 C   171 -- C   591       -0.09      5.38000
 C   245 -- C   640       -0.09      5.38000
 C   244 -- C   639       -0.09      5.38000
 C   243 -- C   638       -0.09      5.38000
 C   242 -- C   637       -0.09      5.38000
 C   241 -- C   636       -0.09      5.38000
==================================================


=================== Orbital energy and occupancy information ===================

      Total number of orbitals:    2560
        Occupancy sum (kernel):    1280.000000000
   Occupancy sum (eigenvalues):    1280.000000000
                 HOMO-LUMO gap:       0.062084338 Eh
                 Mid-gap level:       0.276941893 Eh

                        Orbital | Energy (Eh) | Occupancy
                            1    -0.446893978   1.0000000
                        .......   ...........   .........
                         1271     0.240456207   0.9999869
                         1272     0.240456207   0.9999869
                         1273     0.240924121   0.9999848
                         1274     0.240924121   0.9999848
                         1275     0.244831479   0.9999480
                         1276     0.244831479   0.9999480
                         1277     0.245272512   0.9999402
                         1278     0.245272512   0.9999402
                         1279     0.245475785   0.9999362
                         1280     0.245899724   0.9999271
                        ....... -- gap at 0K -- .........
                         1281     0.307984062   0.0000419
                         1282     0.307984062   0.0000419
                         1283     0.308246542   0.0000386
                         1284     0.308246542   0.0000386
                         1285     0.308984038   0.0000307
                         1286     0.308984038   0.0000307
                         1287     0.309264509   0.0000281
                         1288     0.309264509   0.0000281
                         1289     0.309677333   0.0000247
                         1290     0.309964534   0.0000226
                        .......   ...........   .........
                         2560     1.154859882   0.0000000

================================================================================

===================== Writing canonical molecular orbitals =====================
| Orbital  Energy (eV)  Norm     |
| HOMO      6.69127197  1.000000 | Writing "3.22252712_GO_manual_4x64graphite_HOMO.cube" ... done
Writing "3.22252712_GO_manual_4x64graphite_HOMO.dx" ... done
| LUMO      8.38067277  1.000000 | Writing "3.22252712_GO_manual_4x64graphite_LUMO.cube" ... done
Writing "3.22252712_GO_manual_4x64graphite_LUMO.dx" ... done
================================================================================
 
===================== Density of States (DOS) calculation ======================
Writing "3.22252712_GO_manual_4x64graphite_DOS.txt" ...  done
================================================================================
 
Writing bands to file "3.22252712_GO_manual_4x64graphite.val_bands" ... done
 
================ Projected Density of States (pDOS) calculation ================
 
Constructing AM resolved functions  ...... done
Writing NGWF plot files in formats: CUBE DX ...  done
 
Performing overlap integrals ...  done
 
Computing pDOS weights ...  done
 
All bands spilling parameter =   3.96 %
Occupancy-weighted spilling parameter =   0.89 %
 
 => Outputting data for OptaDOS <=
 
Writing pDOS weights to file "3.22252712_GO_manual_4x64graphite.val_pdos_bin" ... done
 
Writing band gradients to file "3.22252712_GO_manual_4x64graphite.val_dome_bin" ... done
 
Writing Castep output cell file to "3.22252712_GO_manual_4x64graphite-out.cell" ... done
 
 => Computing Gaussian smeared pDOS <= 
Writing "3.22252712_GO_manual_4x64graphite_PDOS.txt" ...  done
 
 => Computing Occupancy-weighted Gaussian smeared pDOS <= 
Writing "3.22252712_GO_manual_4x64graphite_occ_PDOS.txt" ...  done
  => Band centres: 
 S band centre of group 1:  -14.702564 eV
 P band centre of group 1:   -7.602023 eV
  Band centres done. <=
  => Integrated number of electrons in each AM band: 
 S num electrons of group 1:  574.895443
 P num electrons of group 1: 1962.421321
  Integrated number of electrons done. <=
================================================================================

------------------------------ TIMING INFORMATION ------------------------------
AVERAGE TIME:    4371.672s on     40 node(s)                                    
TOTAL TIME:      4371.672s on     40 node(s)                                    
================= AVERAGE TIMINGS FROM ALL NODES (CUMULATIVE) ==================
|| TAG                                    #calls    cpu time   %total  Gflops ||
|| work_imbalance                       :     1        0.00s   0.000%  ------ ||
|| paw_tcore_hartree_on_grid            :     1        0.01s   0.000%  ------ ||
|| paw_tcore_density                    :     1        0.01s   0.000%  ------ ||
|| paw_sphere_density_on_grid           :     1        0.01s   0.000%  ------ ||
|| sparse_set_to_garbage                :   183        0.03s   0.001%  ------ ||
|| paw_dij_hartree                      :   390        0.05s   0.001%  ------ ||
|| pseudo_make_structure_factor         :     1        0.05s   0.001%  ------ ||
|| basis_extract_function_from_box      :  2048        0.09s   0.002%  ------ ||
|| paw_species_calc_proj_prec_mat       :     1        0.12s   0.003%  ------ ||
|| paw_dataset_init                     :     1        0.15s   0.003%  ------ ||
|| density_init_guess_real              :     1        0.29s   0.007%  ------ ||
|| ngwfs_initialise_from_radial         :     2        0.67s   0.015%  ------ ||
|| sparse_init                          :     1        0.97s   0.022%  ------ ||
|| hartree_on_grid                      :   292        1.23s   0.028%  ------ ||
|| dense_normal_eigensolve              :     1        1.24s   0.028%  ------ ||
|| restart_kernel_write                 :    17        1.26s   0.029%  ------ ||
|| ewald_calculate_energy               :     1        2.62s   0.060%  ------ ||
|| projectors_init_fftbox_recip         :   161        3.10s   0.071%  ------ ||
|| fourier_apply_box_pair               :  3040        5.03s   0.115% 560.570 ||
|| basis_copy_function_to_box           : 27712        5.84s   0.134%  ------ ||
|| augmentation_screen_dij              :   299        6.66s   0.152%  ------ ||
|| sw_init                              :     1        6.73s   0.154%  ------ ||
|| sparse_embed_hotelling_invert_embed  :    31        9.49s   0.217%  ------ ||
|| ngwf_gradient_coeffs                 :    16       12.67s   0.290%  ------ ||
|| cell_grid_extract_box_real           : 11772       14.20s   0.325%  ------ ||
|| fourier_apply_cell_backward          :  9023       14.46s   0.331%  70.144 ||
|| fourier_apply_cell_forward           :  8440       15.53s   0.355%  61.072 ||
|| sparse_trace                         :  3538       19.60s   0.448%  ------ ||
|| cell_grid_deposit_box_real           : 37552       24.22s   0.554%  ------ ||
|| paw_dij_xc                           :   390       26.44s   0.605%  ------ ||
|| aug_nonlocal_mat                     :   374       40.00s   0.915%  ------ ||
|| eigenstates_pdos                     :     1       47.48s   1.086%  ------ ||
|| density_fftbox_deposit_to_cell       : 18688       48.56s   1.111%  ------ ||
|| eigenstates_calculate                :     1       51.21s   1.171%  ------ ||
|| augmentation_density_on_grid         :   292       54.55s   1.248%  ------ ||
|| nlxc_vdw_energy                      :   582       63.84s   1.460%  ------ ||
|| function_ops_brappd_ketppd           :    64       63.98s   1.463%  ------ ||
|| hamiltonian_energy_components        :     4       67.27s   1.539%  ------ ||
|| xc_energy_potential                  :   291       76.92s   1.759%  ------ ||
|| projectors_func_ovlp_box             :    32       77.58s   1.775%  ------ ||
|| properties_calculate                 :     1       91.34s   2.089%  ------ ||
|| integrals_kinetic                    :    31      115.80s   2.649%  ------ ||
|| dense_eigensolve                     :   256      118.17s   2.703%  ------ ||
|| potential_apply_to_ngwf_batch        :   372      143.90s   3.292%  ------ ||
|| restart_ngwfs_tightbox_output        :    15      148.79s   3.404%  ------ ||
|| sparse_product                       :  3549      154.42s   3.532%  ------ ||
|| basis_dot_function_with_box          : 9.266M     249.60s   5.710%  ------ ||
|| fourier_apply_box                    : 87072      271.52s   6.211% 977.350 ||
|| edft_diag_ngwf_ham                   :   255      274.35s   6.276%  ------ ||
|| projectors_gradient_batch            :    64      298.71s   6.833%  ------ ||
|| integrals_locpot_mat_els_batch       :   372      353.62s   8.089%  ------ ||
|| density_fftbox_interpolate_multiply  : 18688      360.70s   8.251%  ------ ||
|| projectors_grad_precond_batch        :    64      442.43s  10.120%  ------ ||
|| density_batch_interp_deposit         :  1168      452.19s  10.344%  ------ ||
|| integrals_locpot_dbl_grid            :    93      499.40s  11.424%  ------ ||
|| edft_apply_smearing_operator         :   255      544.36s  12.452%  ------ ||
|| basis_add_function_to_box            : 25.88M     667.13s  15.260%  ------ ||
|| ngwf_gradient_build_batch            :    64      789.47s  18.059%  ------ ||
|| density_batch_row_sums               :  1168      985.44s  22.542%  ------ ||
|| ngwf_gradient_batch                  :    64     1049.54s  24.008%  ------ ||
|| ngwf_gradient_lnv                    :    16     1079.26s  24.688%  ------ ||
|| density_on_dbl_grid                  :   292     1453.89s  33.257%  ------ ||
|| hamiltonian_lhxc_calculate           :   286     1557.96s  35.638%  ------ ||
|| edft_calculate                       :    16     2581.04s  59.040%  ------ ||
|| ngwf_cg_optimise                     :     1     4253.99s  97.308%  ------ ||
|| total_time                           :     1     4371.67s 100.000%  ------ ||
================================================================================
Overhead of generating timer report: 
- 0 ms averaging over threads,
- 5 ms ensuring consistency across MPI ranks,
- 0 ms printing in order.

Job completed: 26-02-2020 04:35 (-0000)

