 +---------------------------------------------------------------+
 |                                                               |
 |        ####### #     # ####### ####### ####### ######         |
 |        #     # ##    # #          #    #       #     #        |
 |        #     # # #   # #          #    #       #     #        |
 |        #     # #  #  # #####      #    #####   ######         |
 |        #     # #   # # #          #    #       #              |
 |        #     # #    ## #          #    #       #              |
 |        ####### #     # #######    #    ####### #              |
 |                                                               |
 |        Linear-Scaling Ab Initio Total Energy Program          |
 |                                                               |
 |          Release for academic collaborators of ODG            |
 |                                             Version 5.3.2.12  |
 |                                                               |
 +---------------------------------------------------------------+
 |                                                               |
 |  Authors:                                                     |
 |  Jacek Dziedzic, Peter D. Haynes, Nicholas D. M. Hine,        |
 |  Arash. A. Mostofi, Mike C. Payne and Chris-Kriton Skylaris   |
 |                                                               |
 |  Contributors:                                                |
 |  J. Aarons, L. Andrinopoulos, P. W. Avraam, R. A. Bell,       |
 |  A. Bhandari, G. A. Bramley, R. J. Charlton, S. J. Clark,     |
 |  R. J. Clements, G. C. Constantinescu, F. Corsetti,           |
 |  N. Corsini, O. Dieguez, S. M. M. Dubois, K. K. B. Duff,      |
 |  J. M. Escartin, A. Greco, H. Helal, Q. O. Hill, L. P. Lee,   |
 |  J.-H. Li, E. B. Linscott, G. Moynihan, D. D. O`Regan,        |
 |  O. K. Okan, M. J. S. Phipps, C. J. Pickard,                  |
 |  J. C. A. Prentice, M. I. J. Probert, L. E. Ratcliff,         |
 |  M. Robinson, A. Ruiz Serrano, J. S. Spencer, E. W. Tait,     |
 |  G. Teobaldi, D. Turban, V. Vitale, K. A. Wilkinson,          |
 |  C. Weber, J. C. Womack, N. Yeung and T. J. Zuehlsdorff       |
 |                                                               |
 |                                   Copyright (c) 2004-2020     |
 |                                                               |
 |  Please cite:                                                 |
 |  "Introducing ONETEP: Linear-scaling density functional       |
 |   simulations on parallel computers".                         |
 |   C.-K. Skylaris, P. D. Haynes, A. A. Mostofi, M. C. Payne.   |
 |   J. Chem. Phys. 122 084119 (2005).                           |
 |                                                               |
 |          in all publications arising from your use of ONETEP. |
 |                                                               |
 +---------------------------------------------------------------+
 |                                                               |
 |   ONETEP is based on developments described in the following  |
 |   publications:                                               |
 |                                                               |
 |  "Nonorthogonal generalized Wannier function pseudopotential  |
 |   plane-wave method".                                         |
 |   C.-K. Skylaris, A. A. Mostofi, P. D. Haynes, O. Dieguez,    |
 |   M. C. Payne.                                                |
 |   Phys. Rev. B 66 035119 (2002).                              |
 |                                                               |
 |  "Preconditioned iterative minimization for linear-scaling    |
 |   electronic structure calculations".                         |
 |   A. A. Mostofi, P. D. Haynes, C.-K. Skylaris, M. C. Payne.   |
 |   J. Chem. Phys. 119(17), pp.8842-8848 (2003).                |
 |                                                               |
 |  "Total-energy calculations on a real space grid with         |
 |   localized functions and a plane-wave basis".                |
 |   A. A. Mostofi, C.-K. Skylaris, P. D. Haynes, M. C. Payne.   |
 |   Comput. Phys. Commun. 147, pp.788-802 (2002).               |
 |                                                               |
 |  "Accurate kinetic energy evaluation in electronic structure  |
 |   calculations with localized functions on real space grids"  |
 |   C.-K. Skylaris, A. A. Mostofi, P. D. Haynes, C. J. Pickard, |
 |   M. C. Payne.                                                |
 |   Comput. Phys. Commun. 140, pp.315-322 (2001).               |
 |                                                               |
 |  "Accurate ionic forces and geometry optimization in linear-  |
 |   scaling density-functional theory with local orbitals"      |
 |   N. D. M. Hine, M. Robinson, P. D. Haynes, C.-K. Skylaris,   |
 |   M. C. Payne, and A. A. Mostofi.                             |
 |   Phys. Rev. B 83 195102 (2011).                              |
 |                                                               |
 +---------------------------------------------------------------+

Job started: 26-02-2020 04:35 (-0000)
 
Reading parameters from file "3.354_GO_manual_4x64graphite.dat" ...

WARNING: "cutoff_energy" not specified, but "psinc_spacing" specified.
         Using the latter to set the KE cutoff energy to  732.32021eV,
         thus *overriding* the default.

... done

If your calculation crashes here, before "Checking processes and threads..."
is displayed, then your stack size is insufficient.
If so, use "ulimit -s unlimited" at runtime.
You can disable this check with "check_stack_size F".

Checking processes and threads...
   Determining the default number of threads...
      No default threads set at compilation time: defaulting to 1.
      OpenMP library call suggests 4 threads.
      Hybrid MPI-OpenMP compilation detected.
      Number of MPI processes > 1.
      OMP_NUM_THREADS environment variable present and
      its value matches the one obtained from the OpenMP library call.
      Using this value as default.
      Default threads: 4
      Default applies to threads_max and threads_num_fftboxes.
      Settings in the input file override this default.
   ... done

   Running with 40 MPI processes.
   There are 10 MPI processes running on the same node as the root process.
   Each MPI process is using: 
               1 threads for simulation cell FFTs.
               1 threads for parallel FFT box operations.
               4 threads for loops over batched FFT box operations.
               4 threads in other parallel regions.
... done

Basic input checks...
Resetting ngwf_cg_rotate to TRUE for EDFT calculations
... done

Reading geometry and species blocks from file "3.354_GO_manual_4x64graphite.dat" ...
    
  PSINC grid spacing along a1 set to   0.511215680000a0 from input file.
  PSINC grid spacing along a2 set to   0.531284090000a0 from input file.
  PSINC grid spacing along a3 set to   0.507052350000a0 from input file.
  Number of PPD points along a3 set to 1.  This is 
  the default value, it may have been provided also in the input file.
... done
 Writing xyz coordinates to file "3.354_GO_manual_4x64graphite.xyz" ... done


--------------------------------------------------------------------------------
---------------------------------- INPUT FILE ----------------------------------
--------------------------------------------------------------------------------

task : singlepoint                                                              
do_properties : true                                                            
dx_format T                                                                     
edft T                                                                          
output_detail VERBOSE                                                           
write_xyz T                                                                     
xc_functional VDWDF2                                                            
PSINC_SPACING 0.51121568 0.53128409 0.50705235                                  
paw T                                                                           
pdos_max_l = 2                                                                  
dos_smear  0.1 eV                                                               
popn_calculate T                                                                
PDOS_PSEUDOATOMIC T                                                             
PDOS_REDUCE_SWS F                                                               
PDOS_CONSTRUCT_BASIS F                                                          
PDOS_LOWDIN T                                                                   
PDOS_ORTH_ATOM_BLOCKS F                                                         
PDOS_LCAO_OPTIMIZE F                                                            
pdos_optados_output T                                                           
homo_plot 0                                                                     
lumo_plot 0                                                                     
homo_dens_plot -1                                                               
lumo_dens_plot -1                                                               
%BLOCK SPECIES                                                                  
C C 6 4 9.0                                                                     
%ENDBLOCK SPECIES                                                               
%BLOCK SPECIES_POT                                                              
C "~/pp/paw/c_pbe_abinit.paw"                                                   
%ENDBLOCK SPECIES_POT                                                           
%BLOCK SPECIES_ATOMIC_SET                                                       
C "SOLVE conf=2s2 2p2"                                                          
%ENDBLOCK SPECIES_ATOMIC_SET                                                    
%BLOCK LATTICE_CART                                                             
32.21  0.00  0.00                                                               
0.00 18.59  0.00                                                                
0.00  0.00 63.38                                                                
%ENDBLOCK LATTICE_CART                                                          
%BLOCK POSITIONS_ABS                                                            
C  0.00  0.00  3.17                                                             
C  0.00  0.00 15.85                                                             
C  0.00  0.00 28.52                                                             
C  0.00  0.00 41.20                                                             
C  0.00  0.00 53.87                                                             
C  0.00  4.65  3.17                                                             
C  0.00  4.65 15.85                                                             
C  0.00  4.65 28.52                                                             
C  0.00  4.65 41.20                                                             
C  0.00  4.65 53.87                                                             
C  4.03  2.32  3.17                                                             
C  4.03  2.32 15.85                                                             
C  4.03  2.32 28.52                                                             
C  4.03  2.32 41.20                                                             
C  4.03  2.32 53.87                                                             
C  8.05  0.00  3.17                                                             
C  8.05  0.00 15.85                                                             
C  8.05  0.00 28.52                                                             
C  8.05  0.00 41.20                                                             
C  8.05  0.00 53.87                                                             
C  0.00  9.30  3.17                                                             
C  0.00  9.30 15.85                                                             
C  0.00  9.30 28.52                                                             
C  0.00  9.30 41.20                                                             
C  0.00  9.30 53.87                                                             
C  4.03  6.97  3.17                                                             
C  4.03  6.97 15.85                                                             
C  4.03  6.97 28.52                                                             
C  4.03  6.97 41.20                                                             
C  4.03  6.97 53.87                                                             
C  8.05  4.65  3.17                                                             
C  8.05  4.65 15.85                                                             
C  8.05  4.65 28.52                                                             
C  8.05  4.65 41.20                                                             
C  8.05  4.65 53.87                                                             
C 12.08  2.32  3.17                                                             
C 12.08  2.32 15.85                                                             
C 12.08  2.32 28.52                                                             
C 12.08  2.32 41.20                                                             
C 12.08  2.32 53.87                                                             
C 16.10  0.00  3.17                                                             
C 16.10  0.00 15.85                                                             
C 16.10  0.00 28.52                                                             
C 16.10  0.00 41.20                                                             
C 16.10  0.00 53.87                                                             
C  0.00 13.95  3.17                                                             
C  0.00 13.95 15.85                                                             
C  0.00 13.95 28.52                                                             
C  0.00 13.95 41.20                                                             
C  0.00 13.95 53.87                                                             
C  4.03 11.62  3.17                                                             
C  4.03 11.62 15.85                                                             
C  4.03 11.62 28.52                                                             
C  4.03 11.62 41.20                                                             
C  4.03 11.62 53.87                                                             
C  8.05  9.30  3.17                                                             
C  8.05  9.30 15.85                                                             
C  8.05  9.30 28.52                                                             
C  8.05  9.30 41.20                                                             
C  8.05  9.30 53.87                                                             
C 12.08  6.97  3.17                                                             
C 12.08  6.97 15.85                                                             
C 12.08  6.97 28.52                                                             
C 12.08  6.97 41.20                                                             
C 12.08  6.97 53.87                                                             
C 16.10  4.65  3.17                                                             
C 16.10  4.65 15.85                                                             
C 16.10  4.65 28.52                                                             
C 16.10  4.65 41.20                                                             
C 16.10  4.65 53.87                                                             
C 20.13  2.32  3.17                                                             
C 20.13  2.32 15.85                                                             
C 20.13  2.32 28.52                                                             
C 20.13  2.32 41.20                                                             
C 20.13  2.32 53.87                                                             
C 24.16  0.00  3.17                                                             
C 24.16  0.00 15.85                                                             
C 24.16  0.00 28.52                                                             
C 24.16  0.00 41.20                                                             
C 24.16  0.00 53.87                                                             
C  4.03 16.27  3.17                                                             
C  4.03 16.27 15.85                                                             
C  4.03 16.27 28.52                                                             
C  4.03 16.27 41.20                                                             
C  4.03 16.27 53.87                                                             
C  8.05 13.95  3.17                                                             
C  8.05 13.95 15.85                                                             
C  8.05 13.95 28.52                                                             
C  8.05 13.95 41.20                                                             
C  8.05 13.95 53.87                                                             
C 12.08 11.62  3.17                                                             
C 12.08 11.62 15.85                                                             
C 12.08 11.62 28.52                                                             
C 12.08 11.62 41.20                                                             
C 12.08 11.62 53.87                                                             
C 16.10  9.30  3.17                                                             
C 16.10  9.30 15.85                                                             
C 16.10  9.30 28.52                                                             
C 16.10  9.30 41.20                                                             
C 16.10  9.30 53.87                                                             
C 20.13  6.97  3.17                                                             
C 20.13  6.97 15.85                                                             
C 20.13  6.97 28.52                                                             
C 20.13  6.97 41.20                                                             
C 20.13  6.97 53.87                                                             
C 24.16  4.65  3.17                                                             
C 24.16  4.65 15.85                                                             
C 24.16  4.65 28.52                                                             
C 24.16  4.65 41.20                                                             
C 24.16  4.65 53.87                                                             
C 28.18  2.32  3.17                                                             
C 28.18  2.32 15.85                                                             
C 28.18  2.32 28.52                                                             
C 28.18  2.32 41.20                                                             
C 28.18  2.32 53.87                                                             
C 12.08 16.27  3.17                                                             
C 12.08 16.27 15.85                                                             
C 12.08 16.27 28.52                                                             
C 12.08 16.27 41.20                                                             
C 12.08 16.27 53.87                                                             
C 16.10 13.95  3.17                                                             
C 16.10 13.95 15.85                                                             
C 16.10 13.95 28.52                                                             
C 16.10 13.95 41.20                                                             
C 16.10 13.95 53.87                                                             
C 20.13 11.62  3.17                                                             
C 20.13 11.62 15.85                                                             
C 20.13 11.62 28.52                                                             
C 20.13 11.62 41.20                                                             
C 20.13 11.62 53.87                                                             
C 24.16  9.30  3.17                                                             
C 24.16  9.30 15.85                                                             
C 24.16  9.30 28.52                                                             
C 24.16  9.30 41.20                                                             
C 24.16  9.30 53.87                                                             
C 28.18  6.97  3.17                                                             
C 28.18  6.97 15.85                                                             
C 28.18  6.97 28.52                                                             
C 28.18  6.97 41.20                                                             
C 28.18  6.97 53.87                                                             
C 20.13 16.27  3.17                                                             
C 20.13 16.27 15.85                                                             
C 20.13 16.27 28.52                                                             
C 20.13 16.27 41.20                                                             
C 20.13 16.27 53.87                                                             
C 24.16 13.95  3.17                                                             
C 24.16 13.95 15.85                                                             
C 24.16 13.95 28.52                                                             
C 24.16 13.95 41.20                                                             
C 24.16 13.95 53.87                                                             
C 28.18 11.62  3.17                                                             
C 28.18 11.62 15.85                                                             
C 28.18 11.62 28.52                                                             
C 28.18 11.62 41.20                                                             
C 28.18 11.62 53.87                                                             
C 28.18 16.27  3.17                                                             
C 28.18 16.27 15.85                                                             
C 28.18 16.27 28.52                                                             
C 28.18 16.27 41.20                                                             
C 28.18 16.27 53.87                                                             
C  0.00  0.00  9.51                                                             
C  0.00  0.00 22.18                                                             
C  0.00  0.00 34.86                                                             
C  0.00  0.00 47.54                                                             
C  0.00  0.00 60.21                                                             
C  0.00  4.65  9.51                                                             
C  0.00  4.65 22.18                                                             
C  0.00  4.65 34.86                                                             
C  0.00  4.65 47.54                                                             
C  0.00  4.65 60.21                                                             
C  4.03  2.32  9.51                                                             
C  4.03  2.32 22.18                                                             
C  4.03  2.32 34.86                                                             
C  4.03  2.32 47.54                                                             
C  4.03  2.32 60.21                                                             
C  8.05  0.00  9.51                                                             
C  8.05  0.00 22.18                                                             
C  8.05  0.00 34.86                                                             
C  8.05  0.00 47.54                                                             
C  8.05  0.00 60.21                                                             
C  0.00  9.30  9.51                                                             
C  0.00  9.30 22.18                                                             
C  0.00  9.30 34.86                                                             
C  0.00  9.30 47.54                                                             
C  0.00  9.30 60.21                                                             
C  4.03  6.97  9.51                                                             
C  4.03  6.97 22.18                                                             
C  4.03  6.97 34.86                                                             
C  4.03  6.97 47.54                                                             
C  4.03  6.97 60.21                                                             
C  8.05  4.65  9.51                                                             
C  8.05  4.65 22.18                                                             
C  8.05  4.65 34.86                                                             
C  8.05  4.65 47.54                                                             
C  8.05  4.65 60.21                                                             
C 12.08  2.32  9.51                                                             
C 12.08  2.32 22.18                                                             
C 12.08  2.32 34.86                                                             
C 12.08  2.32 47.54                                                             
C 12.08  2.32 60.21                                                             
C 16.10  0.00  9.51                                                             
C 16.10  0.00 22.18                                                             
C 16.10  0.00 34.86                                                             
C 16.10  0.00 47.54                                                             
C 16.10  0.00 60.21                                                             
C  0.00 13.95  9.51                                                             
C  0.00 13.95 22.18                                                             
C  0.00 13.95 34.86                                                             
C  0.00 13.95 47.54                                                             
C  0.00 13.95 60.21                                                             
C  4.03 11.62  9.51                                                             
C  4.03 11.62 22.18                                                             
C  4.03 11.62 34.86                                                             
C  4.03 11.62 47.54                                                             
C  4.03 11.62 60.21                                                             
C  8.05  9.30  9.51                                                             
C  8.05  9.30 22.18                                                             
C  8.05  9.30 34.86                                                             
C  8.05  9.30 47.54                                                             
C  8.05  9.30 60.21                                                             
C 12.08  6.97  9.51                                                             
C 12.08  6.97 22.18                                                             
C 12.08  6.97 34.86                                                             
C 12.08  6.97 47.54                                                             
C 12.08  6.97 60.21                                                             
C 16.10  4.65  9.51                                                             
C 16.10  4.65 22.18                                                             
C 16.10  4.65 34.86                                                             
C 16.10  4.65 47.54                                                             
C 16.10  4.65 60.21                                                             
C 20.13  2.32  9.51                                                             
C 20.13  2.32 22.18                                                             
C 20.13  2.32 34.86                                                             
C 20.13  2.32 47.54                                                             
C 20.13  2.32 60.21                                                             
C 24.16  0.00  9.51                                                             
C 24.16  0.00 22.18                                                             
C 24.16  0.00 34.86                                                             
C 24.16  0.00 47.54                                                             
C 24.16  0.00 60.21                                                             
C  4.03 16.27  9.51                                                             
C  4.03 16.27 22.18                                                             
C  4.03 16.27 34.86                                                             
C  4.03 16.27 47.54                                                             
C  4.03 16.27 60.21                                                             
C  8.05 13.95  9.51                                                             
C  8.05 13.95 22.18                                                             
C  8.05 13.95 34.86                                                             
C  8.05 13.95 47.54                                                             
C  8.05 13.95 60.21                                                             
C 12.08 11.62  9.51                                                             
C 12.08 11.62 22.18                                                             
C 12.08 11.62 34.86                                                             
C 12.08 11.62 47.54                                                             
C 12.08 11.62 60.21                                                             
C 16.10  9.30  9.51                                                             
C 16.10  9.30 22.18                                                             
C 16.10  9.30 34.86                                                             
C 16.10  9.30 47.54                                                             
C 16.10  9.30 60.21                                                             
C 20.13  6.97  9.51                                                             
C 20.13  6.97 22.18                                                             
C 20.13  6.97 34.86                                                             
C 20.13  6.97 47.54                                                             
C 20.13  6.97 60.21                                                             
C 24.16  4.65  9.51                                                             
C 24.16  4.65 22.18                                                             
C 24.16  4.65 34.86                                                             
C 24.16  4.65 47.54                                                             
C 24.16  4.65 60.21                                                             
C 28.18  2.32  9.51                                                             
C 28.18  2.32 22.18                                                             
C 28.18  2.32 34.86                                                             
C 28.18  2.32 47.54                                                             
C 28.18  2.32 60.21                                                             
C 12.08 16.27  9.51                                                             
C 12.08 16.27 22.18                                                             
C 12.08 16.27 34.86                                                             
C 12.08 16.27 47.54                                                             
C 12.08 16.27 60.21                                                             
C 16.10 13.95  9.51                                                             
C 16.10 13.95 22.18                                                             
C 16.10 13.95 34.86                                                             
C 16.10 13.95 47.54                                                             
C 16.10 13.95 60.21                                                             
C 20.13 11.62  9.51                                                             
C 20.13 11.62 22.18                                                             
C 20.13 11.62 34.86                                                             
C 20.13 11.62 47.54                                                             
C 20.13 11.62 60.21                                                             
C 24.16  9.30  9.51                                                             
C 24.16  9.30 22.18                                                             
C 24.16  9.30 34.86                                                             
C 24.16  9.30 47.54                                                             
C 24.16  9.30 60.21                                                             
C 28.18  6.97  9.51                                                             
C 28.18  6.97 22.18                                                             
C 28.18  6.97 34.86                                                             
C 28.18  6.97 47.54                                                             
C 28.18  6.97 60.21                                                             
C 20.13 16.27  9.51                                                             
C 20.13 16.27 22.18                                                             
C 20.13 16.27 34.86                                                             
C 20.13 16.27 47.54                                                             
C 20.13 16.27 60.21                                                             
C 24.16 13.95  9.51                                                             
C 24.16 13.95 22.18                                                             
C 24.16 13.95 34.86                                                             
C 24.16 13.95 47.54                                                             
C 24.16 13.95 60.21                                                             
C 28.18 11.62  9.51                                                             
C 28.18 11.62 22.18                                                             
C 28.18 11.62 34.86                                                             
C 28.18 11.62 47.54                                                             
C 28.18 11.62 60.21                                                             
C 28.18 16.27  9.51                                                             
C 28.18 16.27 22.18                                                             
C 28.18 16.27 34.86                                                             
C 28.18 16.27 47.54                                                             
C 28.18 16.27 60.21                                                             
C  1.34  2.32  3.17                                                             
C  1.34  2.32 15.85                                                             
C  1.34  2.32 28.52                                                             
C  1.34  2.32 41.20                                                             
C  1.34  2.32 53.87                                                             
C  5.37  0.00  3.17                                                             
C  5.37  0.00 15.85                                                             
C  5.37  0.00 28.52                                                             
C  5.37  0.00 41.20                                                             
C  5.37  0.00 53.87                                                             
C  1.34  6.97  3.17                                                             
C  1.34  6.97 15.85                                                             
C  1.34  6.97 28.52                                                             
C  1.34  6.97 41.20                                                             
C  1.34  6.97 53.87                                                             
C  5.37  4.65  3.17                                                             
C  5.37  4.65 15.85                                                             
C  5.37  4.65 28.52                                                             
C  5.37  4.65 41.20                                                             
C  5.37  4.65 53.87                                                             
C  9.39  2.32  3.17                                                             
C  9.39  2.32 15.85                                                             
C  9.39  2.32 28.52                                                             
C  9.39  2.32 41.20                                                             
C  9.39  2.32 53.87                                                             
C 13.42  0.00  3.17                                                             
C 13.42  0.00 15.85                                                             
C 13.42  0.00 28.52                                                             
C 13.42  0.00 41.20                                                             
C 13.42  0.00 53.87                                                             
C  1.34 11.62  3.17                                                             
C  1.34 11.62 15.85                                                             
C  1.34 11.62 28.52                                                             
C  1.34 11.62 41.20                                                             
C  1.34 11.62 53.87                                                             
C  5.37  9.30  3.17                                                             
C  5.37  9.30 15.85                                                             
C  5.37  9.30 28.52                                                             
C  5.37  9.30 41.20                                                             
C  5.37  9.30 53.87                                                             
C  9.39  6.97  3.17                                                             
C  9.39  6.97 15.85                                                             
C  9.39  6.97 28.52                                                             
C  9.39  6.97 41.20                                                             
C  9.39  6.97 53.87                                                             
C 13.42  4.65  3.17                                                             
C 13.42  4.65 15.85                                                             
C 13.42  4.65 28.52                                                             
C 13.42  4.65 41.20                                                             
C 13.42  4.65 53.87                                                             
C 17.45  2.32  3.17                                                             
C 17.45  2.32 15.85                                                             
C 17.45  2.32 28.52                                                             
C 17.45  2.32 41.20                                                             
C 17.45  2.32 53.87                                                             
C 21.47  0.00  3.17                                                             
C 21.47  0.00 15.85                                                             
C 21.47  0.00 28.52                                                             
C 21.47  0.00 41.20                                                             
C 21.47  0.00 53.87                                                             
C  1.34 16.27  3.17                                                             
C  1.34 16.27 15.85                                                             
C  1.34 16.27 28.52                                                             
C  1.34 16.27 41.20                                                             
C  1.34 16.27 53.87                                                             
C  5.37 13.95  3.17                                                             
C  5.37 13.95 15.85                                                             
C  5.37 13.95 28.52                                                             
C  5.37 13.95 41.20                                                             
C  5.37 13.95 53.87                                                             
C  9.39 11.62  3.17                                                             
C  9.39 11.62 15.85                                                             
C  9.39 11.62 28.52                                                             
C  9.39 11.62 41.20                                                             
C  9.39 11.62 53.87                                                             
C 13.42  9.30  3.17                                                             
C 13.42  9.30 15.85                                                             
C 13.42  9.30 28.52                                                             
C 13.42  9.30 41.20                                                             
C 13.42  9.30 53.87                                                             
C 17.45  6.97  3.17                                                             
C 17.45  6.97 15.85                                                             
C 17.45  6.97 28.52                                                             
C 17.45  6.97 41.20                                                             
C 17.45  6.97 53.87                                                             
C 21.47  4.65  3.17                                                             
C 21.47  4.65 15.85                                                             
C 21.47  4.65 28.52                                                             
C 21.47  4.65 41.20                                                             
C 21.47  4.65 53.87                                                             
C 25.50  2.32  3.17                                                             
C 25.50  2.32 15.85                                                             
C 25.50  2.32 28.52                                                             
C 25.50  2.32 41.20                                                             
C 25.50  2.32 53.87                                                             
C 29.52  0.00  3.17                                                             
C 29.52  0.00 15.85                                                             
C 29.52  0.00 28.52                                                             
C 29.52  0.00 41.20                                                             
C 29.52  0.00 53.87                                                             
C  9.39 16.27  3.17                                                             
C  9.39 16.27 15.85                                                             
C  9.39 16.27 28.52                                                             
C  9.39 16.27 41.20                                                             
C  9.39 16.27 53.87                                                             
C 13.42 13.95  3.17                                                             
C 13.42 13.95 15.85                                                             
C 13.42 13.95 28.52                                                             
C 13.42 13.95 41.20                                                             
C 13.42 13.95 53.87                                                             
C 17.45 11.62  3.17                                                             
C 17.45 11.62 15.85                                                             
C 17.45 11.62 28.52                                                             
C 17.45 11.62 41.20                                                             
C 17.45 11.62 53.87                                                             
C 21.47  9.30  3.17                                                             
C 21.47  9.30 15.85                                                             
C 21.47  9.30 28.52                                                             
C 21.47  9.30 41.20                                                             
C 21.47  9.30 53.87                                                             
C 25.50  6.97  3.17                                                             
C 25.50  6.97 15.85                                                             
C 25.50  6.97 28.52                                                             
C 25.50  6.97 41.20                                                             
C 25.50  6.97 53.87                                                             
C 29.52  4.65  3.17                                                             
C 29.52  4.65 15.85                                                             
C 29.52  4.65 28.52                                                             
C 29.52  4.65 41.20                                                             
C 29.52  4.65 53.87                                                             
C 17.45 16.27  3.17                                                             
C 17.45 16.27 15.85                                                             
C 17.45 16.27 28.52                                                             
C 17.45 16.27 41.20                                                             
C 17.45 16.27 53.87                                                             
C 21.47 13.95  3.17                                                             
C 21.47 13.95 15.85                                                             
C 21.47 13.95 28.52                                                             
C 21.47 13.95 41.20                                                             
C 21.47 13.95 53.87                                                             
C 25.50 11.62  3.17                                                             
C 25.50 11.62 15.85                                                             
C 25.50 11.62 28.52                                                             
C 25.50 11.62 41.20                                                             
C 25.50 11.62 53.87                                                             
C 29.52  9.30  3.17                                                             
C 29.52  9.30 15.85                                                             
C 29.52  9.30 28.52                                                             
C 29.52  9.30 41.20                                                             
C 29.52  9.30 53.87                                                             
C 25.50 16.27  3.17                                                             
C 25.50 16.27 15.85                                                             
C 25.50 16.27 28.52                                                             
C 25.50 16.27 41.20                                                             
C 25.50 16.27 53.87                                                             
C 29.52 13.95  3.17                                                             
C 29.52 13.95 15.85                                                             
C 29.52 13.95 28.52                                                             
C 29.52 13.95 41.20                                                             
C 29.52 13.95 53.87                                                             
C  2.68  0.00  9.51                                                             
C  2.68  0.00 22.18                                                             
C  2.68  0.00 34.86                                                             
C  2.68  0.00 47.54                                                             
C  2.68  0.00 60.21                                                             
C  2.68  4.65  9.51                                                             
C  2.68  4.65 22.18                                                             
C  2.68  4.65 34.86                                                             
C  2.68  4.65 47.54                                                             
C  2.68  4.65 60.21                                                             
C  6.71  2.32  9.51                                                             
C  6.71  2.32 22.18                                                             
C  6.71  2.32 34.86                                                             
C  6.71  2.32 47.54                                                             
C  6.71  2.32 60.21                                                             
C 10.74  0.00  9.51                                                             
C 10.74  0.00 22.18                                                             
C 10.74  0.00 34.86                                                             
C 10.74  0.00 47.54                                                             
C 10.74  0.00 60.21                                                             
C  2.68  9.30  9.51                                                             
C  2.68  9.30 22.18                                                             
C  2.68  9.30 34.86                                                             
C  2.68  9.30 47.54                                                             
C  2.68  9.30 60.21                                                             
C  6.71  6.97  9.51                                                             
C  6.71  6.97 22.18                                                             
C  6.71  6.97 34.86                                                             
C  6.71  6.97 47.54                                                             
C  6.71  6.97 60.21                                                             
C 10.74  4.65  9.51                                                             
C 10.74  4.65 22.18                                                             
C 10.74  4.65 34.86                                                             
C 10.74  4.65 47.54                                                             
C 10.74  4.65 60.21                                                             
C 14.76  2.32  9.51                                                             
C 14.76  2.32 22.18                                                             
C 14.76  2.32 34.86                                                             
C 14.76  2.32 47.54                                                             
C 14.76  2.32 60.21                                                             
C 18.79  0.00  9.51                                                             
C 18.79  0.00 22.18                                                             
C 18.79  0.00 34.86                                                             
C 18.79  0.00 47.54                                                             
C 18.79  0.00 60.21                                                             
C  2.68 13.95  9.51                                                             
C  2.68 13.95 22.18                                                             
C  2.68 13.95 34.86                                                             
C  2.68 13.95 47.54                                                             
C  2.68 13.95 60.21                                                             
C  6.71 11.62  9.51                                                             
C  6.71 11.62 22.18                                                             
C  6.71 11.62 34.86                                                             
C  6.71 11.62 47.54                                                             
C  6.71 11.62 60.21                                                             
C 10.74  9.30  9.51                                                             
C 10.74  9.30 22.18                                                             
C 10.74  9.30 34.86                                                             
C 10.74  9.30 47.54                                                             
C 10.74  9.30 60.21                                                             
C 14.76  6.97  9.51                                                             
C 14.76  6.97 22.18                                                             
C 14.76  6.97 34.86                                                             
C 14.76  6.97 47.54                                                             
C 14.76  6.97 60.21                                                             
C 18.79  4.65  9.51                                                             
C 18.79  4.65 22.18                                                             
C 18.79  4.65 34.86                                                             
C 18.79  4.65 47.54                                                             
C 18.79  4.65 60.21                                                             
C 22.81  2.32  9.51                                                             
C 22.81  2.32 22.18                                                             
C 22.81  2.32 34.86                                                             
C 22.81  2.32 47.54                                                             
C 22.81  2.32 60.21                                                             
C 26.84  0.00  9.51                                                             
C 26.84  0.00 22.18                                                             
C 26.84  0.00 34.86                                                             
C 26.84  0.00 47.54                                                             
C 26.84  0.00 60.21                                                             
C  6.71 16.27  9.51                                                             
C  6.71 16.27 22.18                                                             
C  6.71 16.27 34.86                                                             
C  6.71 16.27 47.54                                                             
C  6.71 16.27 60.21                                                             
C 10.74 13.95  9.51                                                             
C 10.74 13.95 22.18                                                             
C 10.74 13.95 34.86                                                             
C 10.74 13.95 47.54                                                             
C 10.74 13.95 60.21                                                             
C 14.76 11.62  9.51                                                             
C 14.76 11.62 22.18                                                             
C 14.76 11.62 34.86                                                             
C 14.76 11.62 47.54                                                             
C 14.76 11.62 60.21                                                             
C 18.79  9.30  9.51                                                             
C 18.79  9.30 22.18                                                             
C 18.79  9.30 34.86                                                             
C 18.79  9.30 47.54                                                             
C 18.79  9.30 60.21                                                             
C 22.81  6.97  9.51                                                             
C 22.81  6.97 22.18                                                             
C 22.81  6.97 34.86                                                             
C 22.81  6.97 47.54                                                             
C 22.81  6.97 60.21                                                             
C 26.84  4.65  9.51                                                             
C 26.84  4.65 22.18                                                             
C 26.84  4.65 34.86                                                             
C 26.84  4.65 47.54                                                             
C 26.84  4.65 60.21                                                             
C 30.86  2.32  9.51                                                             
C 30.86  2.32 22.18                                                             
C 30.86  2.32 34.86                                                             
C 30.86  2.32 47.54                                                             
C 30.86  2.32 60.21                                                             
C 14.76 16.27  9.51                                                             
C 14.76 16.27 22.18                                                             
C 14.76 16.27 34.86                                                             
C 14.76 16.27 47.54                                                             
C 14.76 16.27 60.21                                                             
C 18.79 13.95  9.51                                                             
C 18.79 13.95 22.18                                                             
C 18.79 13.95 34.86                                                             
C 18.79 13.95 47.54                                                             
C 18.79 13.95 60.21                                                             
C 22.81 11.62  9.51                                                             
C 22.81 11.62 22.18                                                             
C 22.81 11.62 34.86                                                             
C 22.81 11.62 47.54                                                             
C 22.81 11.62 60.21                                                             
C 26.84  9.30  9.51                                                             
C 26.84  9.30 22.18                                                             
C 26.84  9.30 34.86                                                             
C 26.84  9.30 47.54                                                             
C 26.84  9.30 60.21                                                             
C 30.86  6.97  9.51                                                             
C 30.86  6.97 22.18                                                             
C 30.86  6.97 34.86                                                             
C 30.86  6.97 47.54                                                             
C 30.86  6.97 60.21                                                             
C 22.81 16.27  9.51                                                             
C 22.81 16.27 22.18                                                             
C 22.81 16.27 34.86                                                             
C 22.81 16.27 47.54                                                             
C 22.81 16.27 60.21                                                             
C 26.84 13.95  9.51                                                             
C 26.84 13.95 22.18                                                             
C 26.84 13.95 34.86                                                             
C 26.84 13.95 47.54                                                             
C 26.84 13.95 60.21                                                             
C 30.86 11.62  9.51                                                             
C 30.86 11.62 22.18                                                             
C 30.86 11.62 34.86                                                             
C 30.86 11.62 47.54                                                             
C 30.86 11.62 60.21                                                             
C 30.86 16.27  9.51                                                             
C 30.86 16.27 22.18                                                             
C 30.86 16.27 34.86                                                             
C 30.86 16.27 47.54                                                             
C 30.86 16.27 60.21                                                             
%ENDBLOCK POSITIONS_ABS                                                         

--------------------------------------------------------------------------------
-------------------------------- END INPUT FILE --------------------------------
--------------------------------------------------------------------------------


 
<<<<<<<<<<<<<<<<<<<<<<<<<<<<<<<<< Full system >>>>>>>>>>>>>>>>>>>>>>>>>>>>>>>>>>
<<<<<<<<<<<<<<<<<<<<<<<<<<< PAW Dataset information >>>>>>>>>>>>>>>>>>>>>>>>>>>
File: ~/pp/paw/c_pbe_abinit.paw; rc = 1.25 bohr; shape type =  3; rshape = 1.25 bohr;
  Atomic number:  6;  ionic charge:  4.000000
    Partial Wave 1: l = 0
    Partial Wave 2: l = 0
    Partial Wave 3: l = 1
    Partial Wave 4: l = 1
  Core charge supplied for Nonlinear Core Corrections
<<<<<<<<<<<<<<<<<<<<<<<<<<<<<<<<<<<<<<< >>>>>>>>>>>>>>>>>>>>>>>>>>>>>>>>>>>>>>>

-------------------------- Atom counting information ---------------------------
Symbol    Natoms    Nngwfs    Nprojs
  C        640      2560      5120
.......   ......    ......    ......
Totals:    640      2560      5120
--------------------------------------------------------------------------------

=============================== PSINC grid sizes ===============================
                      Simulation cell:   63 x  35 x 125
                              FFT-box:   63 x  35 x 117
                                  PPD:    7 x   5 x   1
Grid space d1=  0.511269841270a0 (KE cutoff=  29.06054Eh = 790.77748eV)
Grid space d2=  0.531142857143a0 (KE cutoff=  26.92659Eh = 732.70972eV)
Grid space d3=  0.507040000000a0 (KE cutoff=  29.54742Eh = 804.02620eV)
================================================================================
  
WARNING in cell_grid_distribute:
Average of less than one 23-slab per node, so workload cannot be
equally balanced between nodes.

********************* Fourier parallelisation information **********************
       Coarse grid (whole simulation cell) dimensions:     63    35   125
          Real-space ('12') slabs/node (min max mean):      3     4     3
         Recip-space ('23') slabs/node (min max mean):      0     1     0
********************************************************************************

********************* Fourier parallelisation information **********************
       Double grid (whole simulation cell) dimensions:    126    70   250
          Real-space ('12') slabs/node (min max mean):      6     7     6
         Recip-space ('23') slabs/node (min max mean):      1     2     1
********************************************************************************

Atom SCF Calculation for C  : Z (AE atom) =   6 : Z (PS atom) =   4
Config String: 2s2 2p2
Orbitals (num,occ):  2     2.00 2.00
Orbitals   (num,l):  2        0    1
Real-space Grid (nr,dr,rmax): 1293    0.0069659443    9.0000000000
Spherical Bessel Basis (nsws,lmax,cutoff):   37    2  161.4736382572
Confining potential (l,width,scale):  0    3.0000000000  100.0000000000
Confining potential (l,width,scale):  1    3.0000000000  100.0000000000
  1         -5.4691149987   -1.3647045835    4.5135257941   -1.6713568800
  2         -5.5214542834   -1.4154291535    4.4635199061   -1.6585170582
  3         -5.5221055910   -1.4439161209    4.4342087028   -1.6520281659
  4         -5.5287901521   -1.4522301802    4.4259176063   -1.6507873939
  5         -5.5308251003   -1.4557840400    4.4224142384   -1.6502632738
  6         -5.5317252094   -1.4571386008    4.4211068249   -1.6500892907
  7         -5.5320765973   -1.4576738924    4.4205997642   -1.6500256779
  8         -5.5322192721   -1.4578833190    4.4204056023   -1.6500032912
  9         -5.5322765240   -1.4579657561    4.4203308649   -1.6499954152
 10         -5.5322995843   -1.4579982639    4.4203020904   -1.6499927055
 11         -5.5323088576   -1.4580111317    4.4202909828   -1.6499917962
 12         -5.5323125859   -1.4580162439    4.4202866844   -1.6499915030
 13         -5.5323140836   -1.4580182832    4.4202850159   -1.6499914143
 14         -5.5323146847   -1.4580191002    4.4202843659   -1.6499913905
 15         -5.5323149258   -1.4580194290    4.4202841117   -1.6499913858
 16         -5.5323150224   -1.4580195619    4.4202840119   -1.6499913859
Atom SCF converged after  16 iterations to a total energy of     -5.53231502

Determining parallel strategy ...
... using space-filling curve
... NGWF load balancing: max     64;  min     64;  average     64
... Projector load balancing: max    128;  min    128;  average    128
... done
Calculating Ewald energy ...
              Ewald: real-space energy =    9501.581636
        Ewald: reciprocal-space energy =       0.085170
         Ewald: (sum_charge)**2 Energy =   11314.859368
         Ewald: (sum_charge**2) Energy =     894.518175
                          Ewald Energy =   -2707.710737
Basis initialisation ...... NGWF spheres initialised
... Projector spheres initialised
... NGWF tight boxes initialised
... Projector tight boxes initialised
... Tight-boxes gathered
... NGWF basis size (local,global):     694420  27887648
... PAW projector initialisation
... done

============================= Charge Augmentation ==============================
                           Aug box size:   11 x  11 x  11
================================================================================

========================== Sparse matrix information ===========================
                        Overlap matrix filling:  44.38%
                        Density kernel filling: 100.00%
              NGWF-Proj overlap matrix filling:  12.98%
                    Aug Overlap matrix filling:  47.69%
                    Hamiltonian matrix filling:  47.69%
                  NGWF diagonal matrix filling:   0.16%
                             KS matrix filling: 100.00% 
                           KSKS matrix filling: 100.00% 
================================================================================

Sparse matrix initialisation ... done
NGWF initialisation ...... done
============ Calculation of NGWF S^-1 using Hotelling algorithm ================ 
         Iteration  |  Frobenius norm and Maximum abs value    (of I-S*S_n^-1)   
               1       0.49143470E+02     0.97707883E+00
               2       0.47970947E+02     0.95595160E+00
               3       0.46192175E+02     0.91813872E+00
               4       0.43857313E+02     0.85565103E+00
               5       0.41040597E+02     0.76244238E+00
               6       0.37727111E+02     0.68446269E+00
               7       0.34204416E+02     0.63537029E+00
               8       0.30817661E+02     0.59413769E+00
               9       0.27251033E+02     0.55059674E+00
              10       0.22788939E+02     0.48369998E+00
              11       0.16975514E+02     0.37678707E+00
              12       0.10210757E+02     0.23338717E+00
              13       0.42121397E+01     0.94951328E-01
              14       0.85443653E+00     0.17852652E-01
              15       0.41460254E-01     0.76629375E-03
              16       0.12080320E-03     0.17725594E-05
              17       0.15175654E-08     0.14009460E-10
              18       0.77076365E-13     0.46629367E-14
================================================================================
Calculating core density ...
================================= Core Density =================================
               Core den box size:   21 x  21 x  21
================================================================================
 ... done
Up spin density kernel initialisation ...... done

Writing density kernel to file "3.354_GO_manual_4x64graphite.dkn" ... done

>>> Optimising kernel for current NGWFs:

--------------------------- Ensemble-DFT optimisation --------------------------
Running ScaLAPACK on   40 processor(s).

--------------------------------------------------------------------------------
  Iter                              Commutator    Free_energy(A=E-TS)     DeltaA
#    0                          0.000045929821   -3681.93064124162265  -3.68E+03

Step                       =       0.381966011250
Energy                     =   -3681.930600247715
Entropy (-TS)              =      -0.000040993893
Free energy (A=E-TS)       =   -3681.930641241623
Est. 0K Energy 0.5*(E+A)   =   -3681.930620744669
Residual Non-orthogonality =       0.000000000000
Residual N_electrons       =      -0.000000000014

Spin          Integrated_Ne            Fermi_level     Delta_Fermi_level
   1      2560.000000000069         0.206587575139              2.07E-01

                           Spin 1          
     Orb      H-eigenvalues     Occupancies
       1 |    -0.5098730561    1.0000000000 | 
                          ------
    1276 |     0.1735898923    0.9999701664 | 
    1277 |     0.1741932976    0.9999639044 | 
    1278 |     0.1742076535    0.9999637404 | 
    1279 |     0.1746611958    0.9999581574 | 
    1280 |     0.1752732216    0.9999492370 | 
                 - Gap at zero temperature -
    1281 |     0.2404514578    0.0000226944 | 
    1282 |     0.2404633944    0.0000226090 | 
    1283 |     0.2405001530    0.0000223481 | 
    1284 |     0.2406838526    0.0000210887 | 
    1285 |     0.2406957442    0.0000210096 | 
                          ------
    2560 |     1.0266024345    0.0000000000 | 

                       |  Abs_value |  Threshold | Converged
     Delta_Free_energy |   3.68E+03 |   1.00E-06 |        No
     Delta_Energy      |   3.68E+03 |   1.00E-04 |        No
     Delta_Entropy     |   4.10E-05 |   1.00E-04 |       Yes
     Commutator        |   4.59E-05 |   1.00E-05 |        No
     Delta_Fermi_level |   2.07E-01 |   1.00E-03 |        No

  Line search of the free energy minimum:
  Step_type        Step             Free_energy   Predicted_free_energy
.   Initial    0.000000    -3681.93064124162265
.    Trial1    0.381966    -3681.93279247267310
.    Trial2    0.618034    -3681.93310215986639
. Quadratic    0.593836    -3681.93310591650652    -3681.93310625279810

--------------------------------------------------------------------------------
  Iter                              Commutator    Free_energy(A=E-TS)     DeltaA
#    1                          0.000025357745   -3681.93310591650652  -2.46E-03

Step                       =       0.593836264213
Energy                     =   -3681.933067218145
Entropy (-TS)              =      -0.000038698765
Free energy (A=E-TS)       =   -3681.933105916507
Est. 0K Energy 0.5*(E+A)   =   -3681.933086567326
Residual Non-orthogonality =       0.000000000000
Residual N_electrons       =       0.000000000404

Spin          Integrated_Ne            Fermi_level     Delta_Fermi_level
   1      2559.999999998072         0.209472566902              2.88E-03

                           Spin 1          
     Orb      H-eigenvalues     Occupancies
       1 |    -0.5091115492    1.0000000000 | 
                          ------
    1276 |     0.1763778449    0.9999710667 | 
    1277 |     0.1768066204    0.9999668717 | 
    1278 |     0.1768322755    0.9999666023 | 
    1279 |     0.1774608404    0.9999592700 | 
    1280 |     0.1779095033    0.9999530710 | 
                 - Gap at zero temperature -
    1281 |     0.2434683046    0.0000217689 | 
    1282 |     0.2435203297    0.0000214142 | 
    1283 |     0.2435464407    0.0000212384 | 
    1284 |     0.2437938187    0.0000196425 | 
    1285 |     0.2438163080    0.0000195035 | 
                          ------
    2560 |     1.0304106761    0.0000000000 | 

                       |  Abs_value |  Threshold | Converged
     Delta_Free_energy |   2.46E-03 |   1.00E-06 |        No
     Delta_Energy      |   2.47E-03 |   1.00E-04 |        No
     Delta_Entropy     |   2.30E-06 |   1.00E-04 |       Yes
     Commutator        |   2.54E-05 |   1.00E-05 |        No
     Delta_Fermi_level |   2.88E-03 |   1.00E-03 |        No

  Line search of the free energy minimum:
  Step_type        Step             Free_energy   Predicted_free_energy
.   Initial    0.000000    -3681.93310591650652
.    Trial1    0.593836    -3681.93266406746352
.    Trial2    0.226825    -3681.93365702528308
. Quadratic    0.253896    -3681.93366318022572    -3681.93366336257213

--------------------------------------------------------------------------------
  Iter                              Commutator    Free_energy(A=E-TS)     DeltaA
#    2                          0.000014179670   -3681.93366318022572  -5.57E-04

Step                       =       0.253896433488
Energy                     =   -3681.933624933207
Entropy (-TS)              =      -0.000038247056
Free energy (A=E-TS)       =   -3681.933663180226
Est. 0K Energy 0.5*(E+A)   =   -3681.933644056717
Residual Non-orthogonality =       0.000000000000
Residual N_electrons       =       0.000000000038

Spin          Integrated_Ne            Fermi_level     Delta_Fermi_level
   1      2559.999999999819         0.209961638600              4.89E-04

                           Spin 1          
     Orb      H-eigenvalues     Occupancies
       1 |    -0.5089783985    1.0000000000 | 
                          ------
    1276 |     0.1767943597    0.9999717220 | 
    1277 |     0.1772829639    0.9999670046 | 
    1278 |     0.1773074997    0.9999667480 | 
    1279 |     0.1778746859    0.9999602261 | 
    1280 |     0.1783819479    0.9999533167 | 
                 - Gap at zero temperature -
    1281 |     0.2440135213    0.0000213864 | 
    1282 |     0.2440642471    0.0000210466 | 
    1283 |     0.2440886911    0.0000208847 | 
    1284 |     0.2443478006    0.0000192440 | 
    1285 |     0.2443479295    0.0000192432 | 
                          ------
    2560 |     1.0310585739    0.0000000000 | 

                       |  Abs_value |  Threshold | Converged
     Delta_Free_energy |   5.57E-04 |   1.00E-06 |        No
     Delta_Energy      |   5.58E-04 |   1.00E-04 |        No
     Delta_Entropy     |   4.52E-07 |   1.00E-04 |       Yes
     Commutator        |   1.42E-05 |   1.00E-05 |        No
     Delta_Fermi_level |   4.89E-04 |   1.00E-03 |       Yes

  Line search of the free energy minimum:
  Step_type        Step             Free_energy   Predicted_free_energy
.   Initial    0.000000    -3681.93366318022572
.    Trial1    0.253896    -3681.93382471011819
.    Trial2    0.538883    -3681.93376740224039
. Quadratic    0.331679    -3681.93383405821260    -3681.93383411049581

--------------------------------------------------------------------------------
  Iter                              Commutator    Free_energy(A=E-TS)     DeltaA
#    3                          0.000009944343   -3681.93383405821260  -1.71E-04

Step                       =       0.331678734655
Energy                     =   -3681.933796231020
Entropy (-TS)              =      -0.000037826787
Free energy (A=E-TS)       =   -3681.933834058213
Est. 0K Energy 0.5*(E+A)   =   -3681.933815144616
Residual Non-orthogonality =       0.000000000000
Residual N_electrons       =      -0.000000000405

Spin          Integrated_Ne            Fermi_level     Delta_Fermi_level
   1      2560.000000001926         0.210442927136              4.81E-04

                           Spin 1          
     Orb      H-eigenvalues     Occupancies
       1 |    -0.5088392629    1.0000000000 | 
                          ------
    1276 |     0.1772268214    0.9999721547 | 
    1277 |     0.1777363483    0.9999672941 | 
    1278 |     0.1777597963    0.9999670510 | 
    1279 |     0.1783070595    0.9999608357 | 
    1280 |     0.1788341172    0.9999537440 | 
                 - Gap at zero temperature -
    1281 |     0.2445375189    0.0000210999 | 
    1282 |     0.2445869962    0.0000207728 | 
    1283 |     0.2446117248    0.0000206112 | 
    1284 |     0.2448549109    0.0000190877 | 
    1285 |     0.2448740422    0.0000189728 | 
                          ------
    2560 |     1.0317119032    0.0000000000 | 

                       |  Abs_value |  Threshold | Converged
     Delta_Free_energy |   1.71E-04 |   1.00E-06 |        No
     Delta_Energy      |   1.71E-04 |   1.00E-04 |        No
     Delta_Entropy     |   4.20E-07 |   1.00E-04 |       Yes
     Commutator        |   9.94E-06 |   1.00E-05 |       Yes
     Delta_Fermi_level |   4.81E-04 |   1.00E-03 |       Yes

  Line search of the free energy minimum:
  Step_type        Step             Free_energy   Predicted_free_energy
.   Initial    0.000000    -3681.93383405821260
.    Trial1    0.331679    -3681.93390517947137
.    Trial2    0.586955    -3681.93378880574801
. Quadratic    0.259722    -3681.93391112257905    -3681.93391109246932

--------------------------------------------------------------------------------
  Iter                              Commutator    Free_energy(A=E-TS)     DeltaA
#    4                          0.000006850136   -3681.93391112257905  -7.71E-05

Step                       =       0.259722103787
Energy                     =   -3681.933873508543
Entropy (-TS)              =      -0.000037614193
Free energy (A=E-TS)       =   -3681.933911122579
Est. 0K Energy 0.5*(E+A)   =   -3681.933892315561
Residual Non-orthogonality =       0.000000000000
Residual N_electrons       =       0.000000000158

Spin          Integrated_Ne            Fermi_level     Delta_Fermi_level
   1      2559.999999999252         0.210696562723              2.54E-04

                           Spin 1          
     Orb      H-eigenvalues     Occupancies
[...]
 C   141 -- C   471       -0.09      5.37000
 C   275 -- C   555       -0.09      5.37000
 C   274 -- C   554       -0.09      5.37000
 C   273 -- C   553       -0.09      5.37000
 C   272 -- C   552       -0.09      5.37000
 C   271 -- C   551       -0.09      5.37000
 C   270 -- C   550       -0.10      5.37000
 C   269 -- C   549       -0.10      5.37000
 C   268 -- C   548       -0.10      5.37000
 C   267 -- C   547       -0.10      5.37000
 C   266 -- C   546       -0.10      5.37000
 C   130 -- C   465       -0.09      5.37000
 C   129 -- C   464       -0.09      5.37000
 C   128 -- C   463       -0.09      5.37000
 C   127 -- C   462       -0.09      5.37000
 C   126 -- C   461       -0.09      5.37000
 C   240 -- C   525       -0.09      5.37000
 C   239 -- C   524       -0.09      5.37000
 C   238 -- C   523       -0.09      5.37000
 C   237 -- C   522       -0.09      5.37000
 C   236 -- C   521       -0.09      5.37000
 C    23 -- C   478       -0.09      5.37202
 C    49 -- C   469       -0.09      5.37202
 C    48 -- C   468       -0.09      5.37202
 C    47 -- C   467       -0.09      5.37202
 C    22 -- C   477       -0.09      5.37202
 C    46 -- C   466       -0.09      5.37202
 C    21 -- C   476       -0.09      5.37202
 C    25 -- C   480       -0.09      5.37202
 C    24 -- C   479       -0.09      5.37202
 C    50 -- C   470       -0.09      5.37202
 C    24 -- C   449       -0.09      5.37202
 C     6 -- C   416       -0.09      5.37202
 C    23 -- C   448       -0.09      5.37202
 C    22 -- C   447       -0.09      5.37202
 C    10 -- C   470       -0.09      5.37202
 C     5 -- C   450       -0.09      5.37202
 C    21 -- C   446       -0.09      5.37202
 C    10 -- C   420       -0.09      5.37202
 C     9 -- C   469       -0.09      5.37202
 C     9 -- C   419       -0.09      5.37202
 C     8 -- C   468       -0.09      5.37202
 C     4 -- C   449       -0.09      5.37202
 C     8 -- C   418       -0.09      5.37202
 C     2 -- C   447       -0.09      5.37202
 C     7 -- C   467       -0.09      5.37202
 C     7 -- C   417       -0.09      5.37202
 C     1 -- C   446       -0.09      5.37202
 C     6 -- C   466       -0.09      5.37202
 C    25 -- C   450       -0.09      5.37202
 C     3 -- C   448       -0.09      5.37202
 C   285 -- C   580       -0.09      5.37202
 C   284 -- C   579       -0.09      5.37202
 C   283 -- C   578       -0.09      5.37202
 C   282 -- C   577       -0.09      5.37202
 C   281 -- C   576       -0.09      5.37202
 C   260 -- C   605       -0.09      5.37202
 C   259 -- C   604       -0.09      5.37202
 C   258 -- C   603       -0.09      5.37202
 C   257 -- C   602       -0.09      5.37202
 C   256 -- C   601       -0.09      5.37202
 C   219 -- C   569       -0.09      5.37202
 C   218 -- C   568       -0.09      5.37202
 C   217 -- C   567       -0.09      5.37202
 C   216 -- C   566       -0.09      5.37202
 C    11 -- C   331       -0.09      5.37202
 C   205 -- C   550       -0.09      5.37202
 C   204 -- C   549       -0.09      5.37202
 C   203 -- C   548       -0.09      5.37202
 C   202 -- C   547       -0.09      5.37202
 C   201 -- C   546       -0.09      5.37202
 C    15 -- C   335       -0.09      5.37202
 C    30 -- C   355       -0.09      5.37202
 C    30 -- C   325       -0.09      5.37202
 C    14 -- C   334       -0.09      5.37202
 C    29 -- C   354       -0.09      5.37202
 C    29 -- C   324       -0.09      5.37202
 C   260 -- C   550       -0.09      5.37202
 C   259 -- C   549       -0.09      5.37202
 C    28 -- C   353       -0.09      5.37202
 C   258 -- C   548       -0.09      5.37202
 C   257 -- C   547       -0.09      5.37202
 C   256 -- C   546       -0.09      5.37202
 C    28 -- C   323       -0.09      5.37202
 C    27 -- C   352       -0.09      5.37202
 C    13 -- C   333       -0.09      5.37202
 C   250 -- C   540       -0.09      5.37202
 C   249 -- C   539       -0.09      5.37202
 C   248 -- C   538       -0.09      5.37202
 C   247 -- C   537       -0.09      5.37202
 C   246 -- C   536       -0.09      5.37202
 C    27 -- C   322       -0.09      5.37202
 C    26 -- C   351       -0.09      5.37202
 C    55 -- C   335       -0.09      5.37202
 C    26 -- C   321       -0.09      5.37202
 C    54 -- C   334       -0.09      5.37202
 C    12 -- C   332       -0.09      5.37202
 C    53 -- C   333       -0.09      5.37202
 C   230 -- C   580       -0.09      5.37202
 C   230 -- C   525       -0.09      5.37202
 C   229 -- C   579       -0.09      5.37202
 C   229 -- C   524       -0.09      5.37202
 C   228 -- C   578       -0.09      5.37202
 C    52 -- C   332       -0.09      5.37202
 C   228 -- C   523       -0.09      5.37202
 C   227 -- C   577       -0.09      5.37202
 C   227 -- C   522       -0.09      5.37202
 C   226 -- C   576       -0.09      5.37202
 C   226 -- C   521       -0.09      5.37202
 C    51 -- C   331       -0.09      5.37202
 C   220 -- C   570       -0.09      5.37202
 C   220 -- C   515       -0.09      5.37202
 C   219 -- C   514       -0.09      5.37202
 C   218 -- C   513       -0.09      5.37202
 C   217 -- C   512       -0.09      5.37202
 C   216 -- C   511       -0.09      5.37202
 C    95 -- C   425       -0.09      5.37202
 C    95 -- C   365       -0.09      5.37202
 C    94 -- C   424       -0.09      5.37202
 C    94 -- C   364       -0.09      5.37202
 C    93 -- C   423       -0.09      5.37202
 C   195 -- C   540       -0.09      5.37202
 C   195 -- C   500       -0.09      5.37202
 C    93 -- C   363       -0.09      5.37202
 C   194 -- C   539       -0.09      5.37202
 C    92 -- C   422       -0.09      5.37202
 C   194 -- C   499       -0.09      5.37202
 C   193 -- C   538       -0.09      5.37202
 C   193 -- C   498       -0.09      5.37202
 C    92 -- C   362       -0.09      5.37202
 C   192 -- C   537       -0.09      5.37202
 C    91 -- C   421       -0.09      5.37202
 C   192 -- C   497       -0.09      5.37202
 C   191 -- C   536       -0.09      5.37202
 C   191 -- C   496       -0.09      5.37202
 C    91 -- C   361       -0.09      5.37202
 C    85 -- C   355       -0.09      5.37202
 C   180 -- C   515       -0.09      5.37202
 C    40 -- C   365       -0.09      5.37202
 C    84 -- C   354       -0.09      5.37202
 C   179 -- C   514       -0.09      5.37202
 C    83 -- C   353       -0.09      5.37202
 C   178 -- C   513       -0.09      5.37202
 C   177 -- C   512       -0.09      5.37202
 C    82 -- C   352       -0.09      5.37202
 C    39 -- C   364       -0.09      5.37202
 C   176 -- C   511       -0.09      5.37202
 C    81 -- C   351       -0.09      5.37202
 C    38 -- C   363       -0.09      5.37202
 C    37 -- C   362       -0.09      5.37202
 C    36 -- C   361       -0.09      5.37202
 C    65 -- C   395       -0.09      5.37202
 C    65 -- C   345       -0.09      5.37202
 C    64 -- C   394       -0.09      5.37202
 C    64 -- C   344       -0.09      5.37202
 C    63 -- C   393       -0.09      5.37202
 C    63 -- C   343       -0.09      5.37202
 C    62 -- C   392       -0.09      5.37202
 C    62 -- C   342       -0.09      5.37202
 C    61 -- C   391       -0.09      5.37202
 C    61 -- C   341       -0.09      5.37202
 C   120 -- C   395       -0.09      5.37202
 C    55 -- C   385       -0.09      5.37202
 C   119 -- C   394       -0.09      5.37202
 C   118 -- C   393       -0.09      5.37202
 C   117 -- C   392       -0.09      5.37202
 C    54 -- C   384       -0.09      5.37202
 C   116 -- C   391       -0.09      5.37202
 C    53 -- C   383       -0.09      5.37202
 C    52 -- C   382       -0.09      5.37202
 C    51 -- C   381       -0.09      5.37202
 C   150 -- C   440       -0.09      5.37202
 C   149 -- C   439       -0.09      5.37202
 C   148 -- C   438       -0.09      5.37202
 C   147 -- C   437       -0.09      5.37202
 C   146 -- C   436       -0.09      5.37202
 C   135 -- C   460       -0.09      5.37202
 C   134 -- C   459       -0.09      5.37202
 C   133 -- C   458       -0.09      5.37202
 C   132 -- C   457       -0.09      5.37202
 C   131 -- C   456       -0.09      5.37202
 C   106 -- C   436       -0.09      5.37202
 C   106 -- C   376       -0.09      5.37202
 C    80 -- C   410       -0.09      5.37202
 C    79 -- C   409       -0.09      5.37202
 C    78 -- C   408       -0.09      5.37202
 C    77 -- C   407       -0.09      5.37202
 C    76 -- C   406       -0.09      5.37202
 C   135 -- C   410       -0.09      5.37202
 C   134 -- C   409       -0.09      5.37202
 C   133 -- C   408       -0.09      5.37202
 C   132 -- C   407       -0.09      5.37202
 C   131 -- C   406       -0.09      5.37202
 C   110 -- C   440       -0.09      5.37202
 C   110 -- C   380       -0.09      5.37202
 C   109 -- C   439       -0.09      5.37202
 C   109 -- C   379       -0.09      5.37202
 C   108 -- C   438       -0.09      5.37202
 C   108 -- C   378       -0.09      5.37202
 C   107 -- C   437       -0.09      5.37202
 C   107 -- C   377       -0.09      5.37202
 C   215 -- C   635       -0.09      5.38000
 C   214 -- C   634       -0.09      5.38000
 C   213 -- C   633       -0.09      5.38000
 C   212 -- C   632       -0.09      5.38000
 C   211 -- C   631       -0.09      5.38000
 C   190 -- C   620       -0.09      5.38000
 C   189 -- C   619       -0.09      5.38000
 C   188 -- C   618       -0.09      5.38000
 C   187 -- C   617       -0.09      5.38000
 C   186 -- C   616       -0.09      5.38000
 C   175 -- C   595       -0.09      5.38000
 C   174 -- C   594       -0.09      5.38000
 C   173 -- C   593       -0.09      5.38000
 C   172 -- C   592       -0.09      5.38000
 C   171 -- C   591       -0.09      5.38000
 C   245 -- C   640       -0.09      5.38000
 C   244 -- C   639       -0.09      5.38000
 C   243 -- C   638       -0.09      5.38000
 C   242 -- C   637       -0.09      5.38000
 C   241 -- C   636       -0.09      5.38000
==================================================


=================== Orbital energy and occupancy information ===================

      Total number of orbitals:    2560
        Occupancy sum (kernel):    1280.000000001
   Occupancy sum (eigenvalues):    1280.000000001
                 HOMO-LUMO gap:       0.000012217 Eh
                 Mid-gap level:       0.291153440 Eh

                        Orbital | Energy (Eh) | Occupancy
                            1    -0.462215607   1.0000000
                        .......   ...........   .........
                         1272     0.222713378   0.9999879
                         1273     0.223151567   0.9999861
                         1274     0.223181956   0.9999860
                         1275     0.226887450   0.9999550
                         1276     0.226889381   0.9999550
                         1277     0.227339342   0.9999481
                         1278     0.227341469   0.9999481
                         1279     0.227823867   0.9999395
                         1280     0.228263890   0.9999305
                         1281     0.291147331   0.0000341
                        ....... -- gap at 0K -- .........
                         1282     0.291159548   0.0000340
                         1283     0.291407645   0.0000315
                         1284     0.291419723   0.0000313
                         1285     0.291938387   0.0000267
                         1286     0.291959291   0.0000266
                         1287     0.292214354   0.0000245
                         1288     0.292235250   0.0000243
                         1289     0.292526046   0.0000223
                         1290     0.292718818   0.0000207
                         1291     0.292735116   0.0000206
                        .......   ...........   .........
                         2560     1.137352759   0.0000000

================================================================================

===================== Writing canonical molecular orbitals =====================
| Orbital  Energy (eV)  Norm     |
| HOMO      7.92252200  1.000000 | Writing "3.354_GO_manual_4x64graphite_HOMO.cube" ... done
Writing "3.354_GO_manual_4x64graphite_HOMO.dx" ... done
| LUMO      7.92285445  1.000000 | Writing "3.354_GO_manual_4x64graphite_LUMO.cube" ... done
Writing "3.354_GO_manual_4x64graphite_LUMO.dx" ... done
================================================================================
 
===================== Density of States (DOS) calculation ======================
Writing "3.354_GO_manual_4x64graphite_DOS.txt" ...  done
================================================================================
 
Writing bands to file "3.354_GO_manual_4x64graphite.val_bands" ... done
 
================ Projected Density of States (pDOS) calculation ================
 
Constructing AM resolved functions  ...... done
Writing NGWF plot files in formats: CUBE DX ...  done
 
Performing overlap integrals ...  done
 
Computing pDOS weights ...  done
 
All bands spilling parameter =   3.80 %
Occupancy-weighted spilling parameter =   0.91 %
 
 => Outputting data for OptaDOS <=
 
Writing pDOS weights to file "3.354_GO_manual_4x64graphite.val_pdos_bin" ... done
 
Writing band gradients to file "3.354_GO_manual_4x64graphite.val_dome_bin" ... done
 
Writing Castep output cell file to "3.354_GO_manual_4x64graphite-out.cell" ... done
 
 => Computing Gaussian smeared pDOS <= 
Writing "3.354_GO_manual_4x64graphite_PDOS.txt" ...  done
 
 => Computing Occupancy-weighted Gaussian smeared pDOS <= 
Writing "3.354_GO_manual_4x64graphite_occ_PDOS.txt" ...  done
  => Band centres: 
 S band centre of group 1:  -15.563707 eV
 P band centre of group 1:   -8.458685 eV
  Band centres done. <=
  => Integrated number of electrons in each AM band: 
 S num electrons of group 1:  574.691171
 P num electrons of group 1: 1961.976059
  Integrated number of electrons done. <=
================================================================================

------------------------------ TIMING INFORMATION ------------------------------
AVERAGE TIME:    4070.479s on     40 node(s)                                    
TOTAL TIME:      4070.480s on     40 node(s)                                    
================= AVERAGE TIMINGS FROM ALL NODES (CUMULATIVE) ==================
|| TAG                                    #calls    cpu time   %total  Gflops ||
|| work_imbalance                       :     1        0.00s   0.000%  ------ ||
|| paw_tcore_hartree_on_grid            :     1        0.00s   0.000%  ------ ||
|| paw_tcore_density                    :     1        0.01s   0.000%  ------ ||
|| paw_sphere_density_on_grid           :     1        0.01s   0.000%  ------ ||
|| sparse_set_to_garbage                :   171        0.03s   0.001%  ------ ||
|| paw_dij_hartree                      :   370        0.05s   0.001%  ------ ||
|| pseudo_make_structure_factor         :     1        0.05s   0.001%  ------ ||
|| basis_extract_function_from_box      :  1920        0.08s   0.002%  ------ ||
|| paw_species_calc_proj_prec_mat       :     1        0.12s   0.003%  ------ ||
|| paw_dataset_init                     :     1        0.15s   0.004%  ------ ||
|| density_init_guess_real              :     1        0.19s   0.005%  ------ ||
|| ngwfs_initialise_from_radial         :     2        0.67s   0.016%  ------ ||
|| restart_kernel_write                 :    16        0.85s   0.021%  ------ ||
|| sparse_init                          :     1        1.01s   0.025%  ------ ||
|| dense_normal_eigensolve              :     1        1.01s   0.025%  ------ ||
|| hartree_on_grid                      :   278        1.40s   0.034%  ------ ||
|| ewald_calculate_energy               :     1        2.66s   0.065%  ------ ||
|| projectors_init_fftbox_recip         :   151        2.98s   0.073%  ------ ||
|| fourier_apply_box_pair               :  2848        4.71s   0.116% 560.846 ||
|| basis_copy_function_to_box           : 26176        5.50s   0.135%  ------ ||
|| augmentation_screen_dij              :   283        6.21s   0.153%  ------ ||
|| sw_init                              :     1        6.73s   0.165%  ------ ||
|| sparse_embed_hotelling_invert_embed  :    29        8.82s   0.217%  ------ ||
|| ngwf_gradient_coeffs                 :    15       12.00s   0.295%  ------ ||
|| cell_grid_extract_box_real           : 11004       13.96s   0.343%  ------ ||
|| fourier_apply_cell_backward          :  8589       15.18s   0.373%  66.404 ||
|| fourier_apply_cell_forward           :  8034       16.72s   0.411%  56.417 ||
|| sparse_trace                         :  3360       18.46s   0.453%  ------ ||
|| cell_grid_deposit_box_real           : 35760       23.04s   0.566%  ------ ||
|| paw_dij_xc                           :   370       25.24s   0.620%  ------ ||
|| aug_nonlocal_mat                     :   355       38.11s   0.936%  ------ ||
|| density_fftbox_deposit_to_cell       : 17792       46.40s   1.140%  ------ ||
|| eigenstates_pdos                     :     1       47.18s   1.159%  ------ ||
|| hamiltonian_energy_components        :     3       49.75s   1.222%  ------ ||
|| eigenstates_calculate                :     1       51.00s   1.253%  ------ ||
|| augmentation_density_on_grid         :   278       53.81s   1.322%  ------ ||
|| function_ops_brappd_ketppd           :    60       64.14s   1.576%  ------ ||
|| nlxc_vdw_energy                      :   554       67.28s   1.653%  ------ ||
|| projectors_func_ovlp_box             :    30       71.56s   1.758%  ------ ||
|| xc_energy_potential                  :   277       77.55s   1.905%  ------ ||
|| properties_calculate                 :     1       91.31s   2.243%  ------ ||
|| integrals_kinetic                    :    29      104.63s   2.570%  ------ ||
|| dense_eigensolve                     :   245      116.53s   2.863%  ------ ||
|| restart_ngwfs_tightbox_output        :    14      126.40s   3.105%  ------ ||
|| potential_apply_to_ngwf_batch        :   344      133.10s   3.270%  ------ ||
|| sparse_product                       :  3362      151.67s   3.726%  ------ ||
|| basis_dot_function_with_box          : 8.584M     232.81s   5.719%  ------ ||
|| fourier_apply_box                    : 82336      256.41s   6.299% 977.605 ||
|| edft_diag_ngwf_ham                   :   244      265.88s   6.532%  ------ ||
|| projectors_gradient_batch            :    60      277.76s   6.824%  ------ ||
|| integrals_locpot_mat_els_batch       :   344      314.50s   7.726%  ------ ||
|| density_fftbox_interpolate_multiply  : 17792      343.43s   8.437%  ------ ||
|| projectors_grad_precond_batch        :    60      401.15s   9.855%  ------ ||
|| density_batch_interp_deposit         :  1112      430.27s  10.571%  ------ ||
|| integrals_locpot_dbl_grid            :    86      449.34s  11.039%  ------ ||
|| edft_apply_smearing_operator         :   244      523.08s  12.851%  ------ ||
|| basis_add_function_to_box            : 24.57M     638.74s  15.692%  ------ ||
|| ngwf_gradient_build_batch            :    60      724.31s  17.794%  ------ ||
|| density_batch_row_sums               :  1112      913.59s  22.444%  ------ ||
|| ngwf_gradient_batch                  :    60      961.81s  23.629%  ------ ||
|| ngwf_gradient_lnv                    :    15      990.89s  24.343%  ------ ||
|| density_on_dbl_grid                  :   278     1357.25s  33.344%  ------ ||
|| hamiltonian_lhxc_calculate           :   273     1466.88s  36.037%  ------ ||
|| edft_calculate                       :    15     2434.48s  59.808%  ------ ||
|| ngwf_cg_optimise                     :     1     3953.55s  97.127%  ------ ||
|| total_time                           :     1     4070.48s 100.000%  ------ ||
================================================================================
Overhead of generating timer report: 
- 0 ms averaging over threads,
- 5 ms ensuring consistency across MPI ranks,
- 0 ms printing in order.

Job completed: 26-02-2020 05:43 (-0000)

