 +---------------------------------------------------------------+
 |                                                               |
 |        ####### #     # ####### ####### ####### ######         |
 |        #     # ##    # #          #    #       #     #        |
 |        #     # # #   # #          #    #       #     #        |
 |        #     # #  #  # #####      #    #####   ######         |
 |        #     # #   # # #          #    #       #              |
 |        #     # #    ## #          #    #       #              |
 |        ####### #     # #######    #    ####### #              |
 |                                                               |
 |        Linear-Scaling Ab Initio Total Energy Program          |
 |                                                               |
 |          Release for academic collaborators of ODG            |
 |                                             Version 5.3.2.12  |
 |                                                               |
 +---------------------------------------------------------------+
 |                                                               |
 |  Authors:                                                     |
 |  Jacek Dziedzic, Peter D. Haynes, Nicholas D. M. Hine,        |
 |  Arash. A. Mostofi, Mike C. Payne and Chris-Kriton Skylaris   |
 |                                                               |
 |  Contributors:                                                |
 |  J. Aarons, L. Andrinopoulos, P. W. Avraam, R. A. Bell,       |
 |  A. Bhandari, G. A. Bramley, R. J. Charlton, S. J. Clark,     |
 |  R. J. Clements, G. C. Constantinescu, F. Corsetti,           |
 |  N. Corsini, O. Dieguez, S. M. M. Dubois, K. K. B. Duff,      |
 |  J. M. Escartin, A. Greco, H. Helal, Q. O. Hill, L. P. Lee,   |
 |  J.-H. Li, E. B. Linscott, G. Moynihan, D. D. O`Regan,        |
 |  O. K. Okan, M. J. S. Phipps, C. J. Pickard,                  |
 |  J. C. A. Prentice, M. I. J. Probert, L. E. Ratcliff,         |
 |  M. Robinson, A. Ruiz Serrano, J. S. Spencer, E. W. Tait,     |
 |  G. Teobaldi, D. Turban, V. Vitale, K. A. Wilkinson,          |
 |  C. Weber, J. C. Womack, N. Yeung and T. J. Zuehlsdorff       |
 |                                                               |
 |                                   Copyright (c) 2004-2020     |
 |                                                               |
 |  Please cite:                                                 |
 |  "Introducing ONETEP: Linear-scaling density functional       |
 |   simulations on parallel computers".                         |
 |   C.-K. Skylaris, P. D. Haynes, A. A. Mostofi, M. C. Payne.   |
 |   J. Chem. Phys. 122 084119 (2005).                           |
 |                                                               |
 |          in all publications arising from your use of ONETEP. |
 |                                                               |
 +---------------------------------------------------------------+
 |                                                               |
 |   ONETEP is based on developments described in the following  |
 |   publications:                                               |
 |                                                               |
 |  "Nonorthogonal generalized Wannier function pseudopotential  |
 |   plane-wave method".                                         |
 |   C.-K. Skylaris, A. A. Mostofi, P. D. Haynes, O. Dieguez,    |
 |   M. C. Payne.                                                |
 |   Phys. Rev. B 66 035119 (2002).                              |
 |                                                               |
 |  "Preconditioned iterative minimization for linear-scaling    |
 |   electronic structure calculations".                         |
 |   A. A. Mostofi, P. D. Haynes, C.-K. Skylaris, M. C. Payne.   |
 |   J. Chem. Phys. 119(17), pp.8842-8848 (2003).                |
 |                                                               |
 |  "Total-energy calculations on a real space grid with         |
 |   localized functions and a plane-wave basis".                |
 |   A. A. Mostofi, C.-K. Skylaris, P. D. Haynes, M. C. Payne.   |
 |   Comput. Phys. Commun. 147, pp.788-802 (2002).               |
 |                                                               |
 |  "Accurate kinetic energy evaluation in electronic structure  |
 |   calculations with localized functions on real space grids"  |
 |   C.-K. Skylaris, A. A. Mostofi, P. D. Haynes, C. J. Pickard, |
 |   M. C. Payne.                                                |
 |   Comput. Phys. Commun. 140, pp.315-322 (2001).               |
 |                                                               |
 |  "Accurate ionic forces and geometry optimization in linear-  |
 |   scaling density-functional theory with local orbitals"      |
 |   N. D. M. Hine, M. Robinson, P. D. Haynes, C.-K. Skylaris,   |
 |   M. C. Payne, and A. A. Mostofi.                             |
 |   Phys. Rev. B 83 195102 (2011).                              |
 |                                                               |
 +---------------------------------------------------------------+

Job started: 26-02-2020 04:35 (-0000)
 
Reading parameters from file "3.3808312_GO_manual_4x64graphite.dat" ...

WARNING: "cutoff_energy" not specified, but "psinc_spacing" specified.
         Using the latter to set the KE cutoff energy to  732.32021eV,
         thus *overriding* the default.

... done

If your calculation crashes here, before "Checking processes and threads..."
is displayed, then your stack size is insufficient.
If so, use "ulimit -s unlimited" at runtime.
You can disable this check with "check_stack_size F".

Checking processes and threads...
   Determining the default number of threads...
      No default threads set at compilation time: defaulting to 1.
      OpenMP library call suggests 4 threads.
      Hybrid MPI-OpenMP compilation detected.
      Number of MPI processes > 1.
      OMP_NUM_THREADS environment variable present and
      its value matches the one obtained from the OpenMP library call.
      Using this value as default.
      Default threads: 4
      Default applies to threads_max and threads_num_fftboxes.
      Settings in the input file override this default.
   ... done

   Running with 40 MPI processes.
   There are 10 MPI processes running on the same node as the root process.
   Each MPI process is using: 
               1 threads for simulation cell FFTs.
               1 threads for parallel FFT box operations.
               4 threads for loops over batched FFT box operations.
               4 threads in other parallel regions.
... done

Basic input checks...
Resetting ngwf_cg_rotate to TRUE for EDFT calculations
... done

Reading geometry and species blocks from file "3.3808312_GO_manual_4x64graphite.dat" ...
    
  PSINC grid spacing along a1 set to   0.511215680000a0 from input file.
  PSINC grid spacing along a2 set to   0.531284090000a0 from input file.
  PSINC grid spacing along a3 set to   0.507052230000a0 from input file.
  Number of PPD points along a3 set to 1.  This is 
  the default value, it may have been provided also in the input file.
... done
 Writing xyz coordinates to file "3.3808312_GO_manual_4x64graphite.xyz" ... done


--------------------------------------------------------------------------------
---------------------------------- INPUT FILE ----------------------------------
--------------------------------------------------------------------------------

task : singlepoint                                                              
do_properties : true                                                            
dx_format T                                                                     
edft T                                                                          
output_detail VERBOSE                                                           
write_xyz T                                                                     
xc_functional VDWDF2                                                            
PSINC_SPACING 0.51121568 0.53128409 0.50705223                                  
paw T                                                                           
pdos_max_l = 2                                                                  
dos_smear  0.1 eV                                                               
popn_calculate T                                                                
PDOS_PSEUDOATOMIC T                                                             
PDOS_REDUCE_SWS F                                                               
PDOS_CONSTRUCT_BASIS F                                                          
PDOS_LOWDIN T                                                                   
PDOS_ORTH_ATOM_BLOCKS F                                                         
PDOS_LCAO_OPTIMIZE F                                                            
pdos_optados_output T                                                           
homo_plot 0                                                                     
lumo_plot 0                                                                     
homo_dens_plot -1                                                               
lumo_dens_plot -1                                                               
%BLOCK SPECIES                                                                  
C C 6 4 9.0                                                                     
%ENDBLOCK SPECIES                                                               
%BLOCK SPECIES_POT                                                              
C "~/pp/paw/c_pbe_abinit.paw"                                                   
%ENDBLOCK SPECIES_POT                                                           
%BLOCK SPECIES_ATOMIC_SET                                                       
C "SOLVE conf=2s2 2p2"                                                          
%ENDBLOCK SPECIES_ATOMIC_SET                                                    
%BLOCK LATTICE_CART                                                             
32.21  0.00  0.00                                                               
0.00 18.59  0.00                                                                
0.00  0.00 63.89                                                                
%ENDBLOCK LATTICE_CART                                                          
%BLOCK POSITIONS_ABS                                                            
C  0.00  0.00  3.19                                                             
C  0.00  0.00 15.97                                                             
C  0.00  0.00 28.75                                                             
C  0.00  0.00 41.53                                                             
C  0.00  0.00 54.31                                                             
C  0.00  4.65  3.19                                                             
C  0.00  4.65 15.97                                                             
C  0.00  4.65 28.75                                                             
C  0.00  4.65 41.53                                                             
C  0.00  4.65 54.31                                                             
C  4.03  2.32  3.19                                                             
C  4.03  2.32 15.97                                                             
C  4.03  2.32 28.75                                                             
C  4.03  2.32 41.53                                                             
C  4.03  2.32 54.31                                                             
C  8.05  0.00  3.19                                                             
C  8.05  0.00 15.97                                                             
C  8.05  0.00 28.75                                                             
C  8.05  0.00 41.53                                                             
C  8.05  0.00 54.31                                                             
C  0.00  9.30  3.19                                                             
C  0.00  9.30 15.97                                                             
C  0.00  9.30 28.75                                                             
C  0.00  9.30 41.53                                                             
C  0.00  9.30 54.31                                                             
C  4.03  6.97  3.19                                                             
C  4.03  6.97 15.97                                                             
C  4.03  6.97 28.75                                                             
C  4.03  6.97 41.53                                                             
C  4.03  6.97 54.31                                                             
C  8.05  4.65  3.19                                                             
C  8.05  4.65 15.97                                                             
C  8.05  4.65 28.75                                                             
C  8.05  4.65 41.53                                                             
C  8.05  4.65 54.31                                                             
C 12.08  2.32  3.19                                                             
C 12.08  2.32 15.97                                                             
C 12.08  2.32 28.75                                                             
C 12.08  2.32 41.53                                                             
C 12.08  2.32 54.31                                                             
C 16.10  0.00  3.19                                                             
C 16.10  0.00 15.97                                                             
C 16.10  0.00 28.75                                                             
C 16.10  0.00 41.53                                                             
C 16.10  0.00 54.31                                                             
C  0.00 13.95  3.19                                                             
C  0.00 13.95 15.97                                                             
C  0.00 13.95 28.75                                                             
C  0.00 13.95 41.53                                                             
C  0.00 13.95 54.31                                                             
C  4.03 11.62  3.19                                                             
C  4.03 11.62 15.97                                                             
C  4.03 11.62 28.75                                                             
C  4.03 11.62 41.53                                                             
C  4.03 11.62 54.31                                                             
C  8.05  9.30  3.19                                                             
C  8.05  9.30 15.97                                                             
C  8.05  9.30 28.75                                                             
C  8.05  9.30 41.53                                                             
C  8.05  9.30 54.31                                                             
C 12.08  6.97  3.19                                                             
C 12.08  6.97 15.97                                                             
C 12.08  6.97 28.75                                                             
C 12.08  6.97 41.53                                                             
C 12.08  6.97 54.31                                                             
C 16.10  4.65  3.19                                                             
C 16.10  4.65 15.97                                                             
C 16.10  4.65 28.75                                                             
C 16.10  4.65 41.53                                                             
C 16.10  4.65 54.31                                                             
C 20.13  2.32  3.19                                                             
C 20.13  2.32 15.97                                                             
C 20.13  2.32 28.75                                                             
C 20.13  2.32 41.53                                                             
C 20.13  2.32 54.31                                                             
C 24.16  0.00  3.19                                                             
C 24.16  0.00 15.97                                                             
C 24.16  0.00 28.75                                                             
C 24.16  0.00 41.53                                                             
C 24.16  0.00 54.31                                                             
C  4.03 16.27  3.19                                                             
C  4.03 16.27 15.97                                                             
C  4.03 16.27 28.75                                                             
C  4.03 16.27 41.53                                                             
C  4.03 16.27 54.31                                                             
C  8.05 13.95  3.19                                                             
C  8.05 13.95 15.97                                                             
C  8.05 13.95 28.75                                                             
C  8.05 13.95 41.53                                                             
C  8.05 13.95 54.31                                                             
C 12.08 11.62  3.19                                                             
C 12.08 11.62 15.97                                                             
C 12.08 11.62 28.75                                                             
C 12.08 11.62 41.53                                                             
C 12.08 11.62 54.31                                                             
C 16.10  9.30  3.19                                                             
C 16.10  9.30 15.97                                                             
C 16.10  9.30 28.75                                                             
C 16.10  9.30 41.53                                                             
C 16.10  9.30 54.31                                                             
C 20.13  6.97  3.19                                                             
C 20.13  6.97 15.97                                                             
C 20.13  6.97 28.75                                                             
C 20.13  6.97 41.53                                                             
C 20.13  6.97 54.31                                                             
C 24.16  4.65  3.19                                                             
C 24.16  4.65 15.97                                                             
C 24.16  4.65 28.75                                                             
C 24.16  4.65 41.53                                                             
C 24.16  4.65 54.31                                                             
C 28.18  2.32  3.19                                                             
C 28.18  2.32 15.97                                                             
C 28.18  2.32 28.75                                                             
C 28.18  2.32 41.53                                                             
C 28.18  2.32 54.31                                                             
C 12.08 16.27  3.19                                                             
C 12.08 16.27 15.97                                                             
C 12.08 16.27 28.75                                                             
C 12.08 16.27 41.53                                                             
C 12.08 16.27 54.31                                                             
C 16.10 13.95  3.19                                                             
C 16.10 13.95 15.97                                                             
C 16.10 13.95 28.75                                                             
C 16.10 13.95 41.53                                                             
C 16.10 13.95 54.31                                                             
C 20.13 11.62  3.19                                                             
C 20.13 11.62 15.97                                                             
C 20.13 11.62 28.75                                                             
C 20.13 11.62 41.53                                                             
C 20.13 11.62 54.31                                                             
C 24.16  9.30  3.19                                                             
C 24.16  9.30 15.97                                                             
C 24.16  9.30 28.75                                                             
C 24.16  9.30 41.53                                                             
C 24.16  9.30 54.31                                                             
C 28.18  6.97  3.19                                                             
C 28.18  6.97 15.97                                                             
C 28.18  6.97 28.75                                                             
C 28.18  6.97 41.53                                                             
C 28.18  6.97 54.31                                                             
C 20.13 16.27  3.19                                                             
C 20.13 16.27 15.97                                                             
C 20.13 16.27 28.75                                                             
C 20.13 16.27 41.53                                                             
C 20.13 16.27 54.31                                                             
C 24.16 13.95  3.19                                                             
C 24.16 13.95 15.97                                                             
C 24.16 13.95 28.75                                                             
C 24.16 13.95 41.53                                                             
C 24.16 13.95 54.31                                                             
C 28.18 11.62  3.19                                                             
C 28.18 11.62 15.97                                                             
C 28.18 11.62 28.75                                                             
C 28.18 11.62 41.53                                                             
C 28.18 11.62 54.31                                                             
C 28.18 16.27  3.19                                                             
C 28.18 16.27 15.97                                                             
C 28.18 16.27 28.75                                                             
C 28.18 16.27 41.53                                                             
C 28.18 16.27 54.31                                                             
C  0.00  0.00  9.58                                                             
C  0.00  0.00 22.36                                                             
C  0.00  0.00 35.14                                                             
C  0.00  0.00 47.92                                                             
C  0.00  0.00 60.69                                                             
C  0.00  4.65  9.58                                                             
C  0.00  4.65 22.36                                                             
C  0.00  4.65 35.14                                                             
C  0.00  4.65 47.92                                                             
C  0.00  4.65 60.69                                                             
C  4.03  2.32  9.58                                                             
C  4.03  2.32 22.36                                                             
C  4.03  2.32 35.14                                                             
C  4.03  2.32 47.92                                                             
C  4.03  2.32 60.69                                                             
C  8.05  0.00  9.58                                                             
C  8.05  0.00 22.36                                                             
C  8.05  0.00 35.14                                                             
C  8.05  0.00 47.92                                                             
C  8.05  0.00 60.69                                                             
C  0.00  9.30  9.58                                                             
C  0.00  9.30 22.36                                                             
C  0.00  9.30 35.14                                                             
C  0.00  9.30 47.92                                                             
C  0.00  9.30 60.69                                                             
C  4.03  6.97  9.58                                                             
C  4.03  6.97 22.36                                                             
C  4.03  6.97 35.14                                                             
C  4.03  6.97 47.92                                                             
C  4.03  6.97 60.69                                                             
C  8.05  4.65  9.58                                                             
C  8.05  4.65 22.36                                                             
C  8.05  4.65 35.14                                                             
C  8.05  4.65 47.92                                                             
C  8.05  4.65 60.69                                                             
C 12.08  2.32  9.58                                                             
C 12.08  2.32 22.36                                                             
C 12.08  2.32 35.14                                                             
C 12.08  2.32 47.92                                                             
C 12.08  2.32 60.69                                                             
C 16.10  0.00  9.58                                                             
C 16.10  0.00 22.36                                                             
C 16.10  0.00 35.14                                                             
C 16.10  0.00 47.92                                                             
C 16.10  0.00 60.69                                                             
C  0.00 13.95  9.58                                                             
C  0.00 13.95 22.36                                                             
C  0.00 13.95 35.14                                                             
C  0.00 13.95 47.92                                                             
C  0.00 13.95 60.69                                                             
C  4.03 11.62  9.58                                                             
C  4.03 11.62 22.36                                                             
C  4.03 11.62 35.14                                                             
C  4.03 11.62 47.92                                                             
C  4.03 11.62 60.69                                                             
C  8.05  9.30  9.58                                                             
C  8.05  9.30 22.36                                                             
C  8.05  9.30 35.14                                                             
C  8.05  9.30 47.92                                                             
C  8.05  9.30 60.69                                                             
C 12.08  6.97  9.58                                                             
C 12.08  6.97 22.36                                                             
C 12.08  6.97 35.14                                                             
C 12.08  6.97 47.92                                                             
C 12.08  6.97 60.69                                                             
C 16.10  4.65  9.58                                                             
C 16.10  4.65 22.36                                                             
C 16.10  4.65 35.14                                                             
C 16.10  4.65 47.92                                                             
C 16.10  4.65 60.69                                                             
C 20.13  2.32  9.58                                                             
C 20.13  2.32 22.36                                                             
C 20.13  2.32 35.14                                                             
C 20.13  2.32 47.92                                                             
C 20.13  2.32 60.69                                                             
C 24.16  0.00  9.58                                                             
C 24.16  0.00 22.36                                                             
C 24.16  0.00 35.14                                                             
C 24.16  0.00 47.92                                                             
C 24.16  0.00 60.69                                                             
C  4.03 16.27  9.58                                                             
C  4.03 16.27 22.36                                                             
C  4.03 16.27 35.14                                                             
C  4.03 16.27 47.92                                                             
C  4.03 16.27 60.69                                                             
C  8.05 13.95  9.58                                                             
C  8.05 13.95 22.36                                                             
C  8.05 13.95 35.14                                                             
C  8.05 13.95 47.92                                                             
C  8.05 13.95 60.69                                                             
C 12.08 11.62  9.58                                                             
C 12.08 11.62 22.36                                                             
C 12.08 11.62 35.14                                                             
C 12.08 11.62 47.92                                                             
C 12.08 11.62 60.69                                                             
C 16.10  9.30  9.58                                                             
C 16.10  9.30 22.36                                                             
C 16.10  9.30 35.14                                                             
C 16.10  9.30 47.92                                                             
C 16.10  9.30 60.69                                                             
C 20.13  6.97  9.58                                                             
C 20.13  6.97 22.36                                                             
C 20.13  6.97 35.14                                                             
C 20.13  6.97 47.92                                                             
C 20.13  6.97 60.69                                                             
C 24.16  4.65  9.58                                                             
C 24.16  4.65 22.36                                                             
C 24.16  4.65 35.14                                                             
C 24.16  4.65 47.92                                                             
C 24.16  4.65 60.69                                                             
C 28.18  2.32  9.58                                                             
C 28.18  2.32 22.36                                                             
C 28.18  2.32 35.14                                                             
C 28.18  2.32 47.92                                                             
C 28.18  2.32 60.69                                                             
C 12.08 16.27  9.58                                                             
C 12.08 16.27 22.36                                                             
C 12.08 16.27 35.14                                                             
C 12.08 16.27 47.92                                                             
C 12.08 16.27 60.69                                                             
C 16.10 13.95  9.58                                                             
C 16.10 13.95 22.36                                                             
C 16.10 13.95 35.14                                                             
C 16.10 13.95 47.92                                                             
C 16.10 13.95 60.69                                                             
C 20.13 11.62  9.58                                                             
C 20.13 11.62 22.36                                                             
C 20.13 11.62 35.14                                                             
C 20.13 11.62 47.92                                                             
C 20.13 11.62 60.69                                                             
C 24.16  9.30  9.58                                                             
C 24.16  9.30 22.36                                                             
C 24.16  9.30 35.14                                                             
C 24.16  9.30 47.92                                                             
C 24.16  9.30 60.69                                                             
C 28.18  6.97  9.58                                                             
C 28.18  6.97 22.36                                                             
C 28.18  6.97 35.14                                                             
C 28.18  6.97 47.92                                                             
C 28.18  6.97 60.69                                                             
C 20.13 16.27  9.58                                                             
C 20.13 16.27 22.36                                                             
C 20.13 16.27 35.14                                                             
C 20.13 16.27 47.92                                                             
C 20.13 16.27 60.69                                                             
C 24.16 13.95  9.58                                                             
C 24.16 13.95 22.36                                                             
C 24.16 13.95 35.14                                                             
C 24.16 13.95 47.92                                                             
C 24.16 13.95 60.69                                                             
C 28.18 11.62  9.58                                                             
C 28.18 11.62 22.36                                                             
C 28.18 11.62 35.14                                                             
C 28.18 11.62 47.92                                                             
C 28.18 11.62 60.69                                                             
C 28.18 16.27  9.58                                                             
C 28.18 16.27 22.36                                                             
C 28.18 16.27 35.14                                                             
C 28.18 16.27 47.92                                                             
C 28.18 16.27 60.69                                                             
C  1.34  2.32  3.19                                                             
C  1.34  2.32 15.97                                                             
C  1.34  2.32 28.75                                                             
C  1.34  2.32 41.53                                                             
C  1.34  2.32 54.31                                                             
C  5.37  0.00  3.19                                                             
C  5.37  0.00 15.97                                                             
C  5.37  0.00 28.75                                                             
C  5.37  0.00 41.53                                                             
C  5.37  0.00 54.31                                                             
C  1.34  6.97  3.19                                                             
C  1.34  6.97 15.97                                                             
C  1.34  6.97 28.75                                                             
C  1.34  6.97 41.53                                                             
C  1.34  6.97 54.31                                                             
C  5.37  4.65  3.19                                                             
C  5.37  4.65 15.97                                                             
C  5.37  4.65 28.75                                                             
C  5.37  4.65 41.53                                                             
C  5.37  4.65 54.31                                                             
C  9.39  2.32  3.19                                                             
C  9.39  2.32 15.97                                                             
C  9.39  2.32 28.75                                                             
C  9.39  2.32 41.53                                                             
C  9.39  2.32 54.31                                                             
C 13.42  0.00  3.19                                                             
C 13.42  0.00 15.97                                                             
C 13.42  0.00 28.75                                                             
C 13.42  0.00 41.53                                                             
C 13.42  0.00 54.31                                                             
C  1.34 11.62  3.19                                                             
C  1.34 11.62 15.97                                                             
C  1.34 11.62 28.75                                                             
C  1.34 11.62 41.53                                                             
C  1.34 11.62 54.31                                                             
C  5.37  9.30  3.19                                                             
C  5.37  9.30 15.97                                                             
C  5.37  9.30 28.75                                                             
C  5.37  9.30 41.53                                                             
C  5.37  9.30 54.31                                                             
C  9.39  6.97  3.19                                                             
C  9.39  6.97 15.97                                                             
C  9.39  6.97 28.75                                                             
C  9.39  6.97 41.53                                                             
C  9.39  6.97 54.31                                                             
C 13.42  4.65  3.19                                                             
C 13.42  4.65 15.97                                                             
C 13.42  4.65 28.75                                                             
C 13.42  4.65 41.53                                                             
C 13.42  4.65 54.31                                                             
C 17.45  2.32  3.19                                                             
C 17.45  2.32 15.97                                                             
C 17.45  2.32 28.75                                                             
C 17.45  2.32 41.53                                                             
C 17.45  2.32 54.31                                                             
C 21.47  0.00  3.19                                                             
C 21.47  0.00 15.97                                                             
C 21.47  0.00 28.75                                                             
C 21.47  0.00 41.53                                                             
C 21.47  0.00 54.31                                                             
C  1.34 16.27  3.19                                                             
C  1.34 16.27 15.97                                                             
C  1.34 16.27 28.75                                                             
C  1.34 16.27 41.53                                                             
C  1.34 16.27 54.31                                                             
C  5.37 13.95  3.19                                                             
C  5.37 13.95 15.97                                                             
C  5.37 13.95 28.75                                                             
C  5.37 13.95 41.53                                                             
C  5.37 13.95 54.31                                                             
C  9.39 11.62  3.19                                                             
C  9.39 11.62 15.97                                                             
C  9.39 11.62 28.75                                                             
C  9.39 11.62 41.53                                                             
C  9.39 11.62 54.31                                                             
C 13.42  9.30  3.19                                                             
C 13.42  9.30 15.97                                                             
C 13.42  9.30 28.75                                                             
C 13.42  9.30 41.53                                                             
C 13.42  9.30 54.31                                                             
C 17.45  6.97  3.19                                                             
C 17.45  6.97 15.97                                                             
C 17.45  6.97 28.75                                                             
C 17.45  6.97 41.53                                                             
C 17.45  6.97 54.31                                                             
C 21.47  4.65  3.19                                                             
C 21.47  4.65 15.97                                                             
C 21.47  4.65 28.75                                                             
C 21.47  4.65 41.53                                                             
C 21.47  4.65 54.31                                                             
C 25.50  2.32  3.19                                                             
C 25.50  2.32 15.97                                                             
C 25.50  2.32 28.75                                                             
C 25.50  2.32 41.53                                                             
C 25.50  2.32 54.31                                                             
C 29.52  0.00  3.19                                                             
C 29.52  0.00 15.97                                                             
C 29.52  0.00 28.75                                                             
C 29.52  0.00 41.53                                                             
C 29.52  0.00 54.31                                                             
C  9.39 16.27  3.19                                                             
C  9.39 16.27 15.97                                                             
C  9.39 16.27 28.75                                                             
C  9.39 16.27 41.53                                                             
C  9.39 16.27 54.31                                                             
C 13.42 13.95  3.19                                                             
C 13.42 13.95 15.97                                                             
C 13.42 13.95 28.75                                                             
C 13.42 13.95 41.53                                                             
C 13.42 13.95 54.31                                                             
C 17.45 11.62  3.19                                                             
C 17.45 11.62 15.97                                                             
C 17.45 11.62 28.75                                                             
C 17.45 11.62 41.53                                                             
C 17.45 11.62 54.31                                                             
C 21.47  9.30  3.19                                                             
C 21.47  9.30 15.97                                                             
C 21.47  9.30 28.75                                                             
C 21.47  9.30 41.53                                                             
C 21.47  9.30 54.31                                                             
C 25.50  6.97  3.19                                                             
C 25.50  6.97 15.97                                                             
C 25.50  6.97 28.75                                                             
C 25.50  6.97 41.53                                                             
C 25.50  6.97 54.31                                                             
C 29.52  4.65  3.19                                                             
C 29.52  4.65 15.97                                                             
C 29.52  4.65 28.75                                                             
C 29.52  4.65 41.53                                                             
C 29.52  4.65 54.31                                                             
C 17.45 16.27  3.19                                                             
C 17.45 16.27 15.97                                                             
C 17.45 16.27 28.75                                                             
C 17.45 16.27 41.53                                                             
C 17.45 16.27 54.31                                                             
C 21.47 13.95  3.19                                                             
C 21.47 13.95 15.97                                                             
C 21.47 13.95 28.75                                                             
C 21.47 13.95 41.53                                                             
C 21.47 13.95 54.31                                                             
C 25.50 11.62  3.19                                                             
C 25.50 11.62 15.97                                                             
C 25.50 11.62 28.75                                                             
C 25.50 11.62 41.53                                                             
C 25.50 11.62 54.31                                                             
C 29.52  9.30  3.19                                                             
C 29.52  9.30 15.97                                                             
C 29.52  9.30 28.75                                                             
C 29.52  9.30 41.53                                                             
C 29.52  9.30 54.31                                                             
C 25.50 16.27  3.19                                                             
C 25.50 16.27 15.97                                                             
C 25.50 16.27 28.75                                                             
C 25.50 16.27 41.53                                                             
C 25.50 16.27 54.31                                                             
C 29.52 13.95  3.19                                                             
C 29.52 13.95 15.97                                                             
C 29.52 13.95 28.75                                                             
C 29.52 13.95 41.53                                                             
C 29.52 13.95 54.31                                                             
C  2.68  0.00  9.58                                                             
C  2.68  0.00 22.36                                                             
C  2.68  0.00 35.14                                                             
C  2.68  0.00 47.92                                                             
C  2.68  0.00 60.69                                                             
C  2.68  4.65  9.58                                                             
C  2.68  4.65 22.36                                                             
C  2.68  4.65 35.14                                                             
C  2.68  4.65 47.92                                                             
C  2.68  4.65 60.69                                                             
C  6.71  2.32  9.58                                                             
C  6.71  2.32 22.36                                                             
C  6.71  2.32 35.14                                                             
C  6.71  2.32 47.92                                                             
C  6.71  2.32 60.69                                                             
C 10.74  0.00  9.58                                                             
C 10.74  0.00 22.36                                                             
C 10.74  0.00 35.14                                                             
C 10.74  0.00 47.92                                                             
C 10.74  0.00 60.69                                                             
C  2.68  9.30  9.58                                                             
C  2.68  9.30 22.36                                                             
C  2.68  9.30 35.14                                                             
C  2.68  9.30 47.92                                                             
C  2.68  9.30 60.69                                                             
C  6.71  6.97  9.58                                                             
C  6.71  6.97 22.36                                                             
C  6.71  6.97 35.14                                                             
C  6.71  6.97 47.92                                                             
C  6.71  6.97 60.69                                                             
C 10.74  4.65  9.58                                                             
C 10.74  4.65 22.36                                                             
C 10.74  4.65 35.14                                                             
C 10.74  4.65 47.92                                                             
C 10.74  4.65 60.69                                                             
C 14.76  2.32  9.58                                                             
C 14.76  2.32 22.36                                                             
C 14.76  2.32 35.14                                                             
C 14.76  2.32 47.92                                                             
C 14.76  2.32 60.69                                                             
C 18.79  0.00  9.58                                                             
C 18.79  0.00 22.36                                                             
C 18.79  0.00 35.14                                                             
C 18.79  0.00 47.92                                                             
C 18.79  0.00 60.69                                                             
C  2.68 13.95  9.58                                                             
C  2.68 13.95 22.36                                                             
C  2.68 13.95 35.14                                                             
C  2.68 13.95 47.92                                                             
C  2.68 13.95 60.69                                                             
C  6.71 11.62  9.58                                                             
C  6.71 11.62 22.36                                                             
C  6.71 11.62 35.14                                                             
C  6.71 11.62 47.92                                                             
C  6.71 11.62 60.69                                                             
C 10.74  9.30  9.58                                                             
C 10.74  9.30 22.36                                                             
C 10.74  9.30 35.14                                                             
C 10.74  9.30 47.92                                                             
C 10.74  9.30 60.69                                                             
C 14.76  6.97  9.58                                                             
C 14.76  6.97 22.36                                                             
C 14.76  6.97 35.14                                                             
C 14.76  6.97 47.92                                                             
C 14.76  6.97 60.69                                                             
C 18.79  4.65  9.58                                                             
C 18.79  4.65 22.36                                                             
C 18.79  4.65 35.14                                                             
C 18.79  4.65 47.92                                                             
C 18.79  4.65 60.69                                                             
C 22.81  2.32  9.58                                                             
C 22.81  2.32 22.36                                                             
C 22.81  2.32 35.14                                                             
C 22.81  2.32 47.92                                                             
C 22.81  2.32 60.69                                                             
C 26.84  0.00  9.58                                                             
C 26.84  0.00 22.36                                                             
C 26.84  0.00 35.14                                                             
C 26.84  0.00 47.92                                                             
C 26.84  0.00 60.69                                                             
C  6.71 16.27  9.58                                                             
C  6.71 16.27 22.36                                                             
C  6.71 16.27 35.14                                                             
C  6.71 16.27 47.92                                                             
C  6.71 16.27 60.69                                                             
C 10.74 13.95  9.58                                                             
C 10.74 13.95 22.36                                                             
C 10.74 13.95 35.14                                                             
C 10.74 13.95 47.92                                                             
C 10.74 13.95 60.69                                                             
C 14.76 11.62  9.58                                                             
C 14.76 11.62 22.36                                                             
C 14.76 11.62 35.14                                                             
C 14.76 11.62 47.92                                                             
C 14.76 11.62 60.69                                                             
C 18.79  9.30  9.58                                                             
C 18.79  9.30 22.36                                                             
C 18.79  9.30 35.14                                                             
C 18.79  9.30 47.92                                                             
C 18.79  9.30 60.69                                                             
C 22.81  6.97  9.58                                                             
C 22.81  6.97 22.36                                                             
C 22.81  6.97 35.14                                                             
C 22.81  6.97 47.92                                                             
C 22.81  6.97 60.69                                                             
C 26.84  4.65  9.58                                                             
C 26.84  4.65 22.36                                                             
C 26.84  4.65 35.14                                                             
C 26.84  4.65 47.92                                                             
C 26.84  4.65 60.69                                                             
C 30.86  2.32  9.58                                                             
C 30.86  2.32 22.36                                                             
C 30.86  2.32 35.14                                                             
C 30.86  2.32 47.92                                                             
C 30.86  2.32 60.69                                                             
C 14.76 16.27  9.58                                                             
C 14.76 16.27 22.36                                                             
C 14.76 16.27 35.14                                                             
C 14.76 16.27 47.92                                                             
C 14.76 16.27 60.69                                                             
C 18.79 13.95  9.58                                                             
C 18.79 13.95 22.36                                                             
C 18.79 13.95 35.14                                                             
C 18.79 13.95 47.92                                                             
C 18.79 13.95 60.69                                                             
C 22.81 11.62  9.58                                                             
C 22.81 11.62 22.36                                                             
C 22.81 11.62 35.14                                                             
C 22.81 11.62 47.92                                                             
C 22.81 11.62 60.69                                                             
C 26.84  9.30  9.58                                                             
C 26.84  9.30 22.36                                                             
C 26.84  9.30 35.14                                                             
C 26.84  9.30 47.92                                                             
C 26.84  9.30 60.69                                                             
C 30.86  6.97  9.58                                                             
C 30.86  6.97 22.36                                                             
C 30.86  6.97 35.14                                                             
C 30.86  6.97 47.92                                                             
C 30.86  6.97 60.69                                                             
C 22.81 16.27  9.58                                                             
C 22.81 16.27 22.36                                                             
C 22.81 16.27 35.14                                                             
C 22.81 16.27 47.92                                                             
C 22.81 16.27 60.69                                                             
C 26.84 13.95  9.58                                                             
C 26.84 13.95 22.36                                                             
C 26.84 13.95 35.14                                                             
C 26.84 13.95 47.92                                                             
C 26.84 13.95 60.69                                                             
C 30.86 11.62  9.58                                                             
C 30.86 11.62 22.36                                                             
C 30.86 11.62 35.14                                                             
C 30.86 11.62 47.92                                                             
C 30.86 11.62 60.69                                                             
C 30.86 16.27  9.58                                                             
C 30.86 16.27 22.36                                                             
C 30.86 16.27 35.14                                                             
C 30.86 16.27 47.92                                                             
C 30.86 16.27 60.69                                                             
%ENDBLOCK POSITIONS_ABS                                                         

--------------------------------------------------------------------------------
-------------------------------- END INPUT FILE --------------------------------
--------------------------------------------------------------------------------


 
<<<<<<<<<<<<<<<<<<<<<<<<<<<<<<<<< Full system >>>>>>>>>>>>>>>>>>>>>>>>>>>>>>>>>>
<<<<<<<<<<<<<<<<<<<<<<<<<<< PAW Dataset information >>>>>>>>>>>>>>>>>>>>>>>>>>>
File: ~/pp/paw/c_pbe_abinit.paw; rc = 1.25 bohr; shape type =  3; rshape = 1.25 bohr;
  Atomic number:  6;  ionic charge:  4.000000
    Partial Wave 1: l = 0
    Partial Wave 2: l = 0
    Partial Wave 3: l = 1
    Partial Wave 4: l = 1
  Core charge supplied for Nonlinear Core Corrections
<<<<<<<<<<<<<<<<<<<<<<<<<<<<<<<<<<<<<<< >>>>>>>>>>>>>>>>>>>>>>>>>>>>>>>>>>>>>>>

-------------------------- Atom counting information ---------------------------
Symbol    Natoms    Nngwfs    Nprojs
  C        640      2560      5120
.......   ......    ......    ......
Totals:    640      2560      5120
--------------------------------------------------------------------------------

=============================== PSINC grid sizes ===============================
                      Simulation cell:   63 x  35 x 126
                              FFT-box:   63 x  35 x 117
                                  PPD:    7 x   5 x   1
Grid space d1=  0.511269841270a0 (KE cutoff=  29.06054Eh = 790.77748eV)
Grid space d2=  0.531142857143a0 (KE cutoff=  26.92659Eh = 732.70972eV)
Grid space d3=  0.507063492063a0 (KE cutoff=  29.54468Eh = 803.95170eV)
================================================================================
  
WARNING in cell_grid_distribute:
Average of less than one 23-slab per node, so workload cannot be
equally balanced between nodes.

********************* Fourier parallelisation information **********************
       Coarse grid (whole simulation cell) dimensions:     63    35   126
          Real-space ('12') slabs/node (min max mean):      3     4     3
         Recip-space ('23') slabs/node (min max mean):      0     1     0
********************************************************************************

********************* Fourier parallelisation information **********************
       Double grid (whole simulation cell) dimensions:    126    70   252
          Real-space ('12') slabs/node (min max mean):      6     7     6
         Recip-space ('23') slabs/node (min max mean):      1     2     1
********************************************************************************

Atom SCF Calculation for C  : Z (AE atom) =   6 : Z (PS atom) =   4
Config String: 2s2 2p2
Orbitals (num,occ):  2     2.00 2.00
Orbitals   (num,l):  2        0    1
Real-space Grid (nr,dr,rmax): 1293    0.0069659443    9.0000000000
Spherical Bessel Basis (nsws,lmax,cutoff):   37    2  161.4736382572
Confining potential (l,width,scale):  0    3.0000000000  100.0000000000
Confining potential (l,width,scale):  1    3.0000000000  100.0000000000
  1         -5.4691149987   -1.3647045835    4.5135257941   -1.6713568800
  2         -5.5214542834   -1.4154291535    4.4635199061   -1.6585170582
  3         -5.5221055910   -1.4439161209    4.4342087028   -1.6520281659
  4         -5.5287901521   -1.4522301802    4.4259176063   -1.6507873939
  5         -5.5308251003   -1.4557840400    4.4224142384   -1.6502632738
  6         -5.5317252094   -1.4571386008    4.4211068249   -1.6500892907
  7         -5.5320765973   -1.4576738924    4.4205997642   -1.6500256779
  8         -5.5322192721   -1.4578833190    4.4204056023   -1.6500032912
  9         -5.5322765240   -1.4579657561    4.4203308649   -1.6499954152
 10         -5.5322995843   -1.4579982639    4.4203020904   -1.6499927055
 11         -5.5323088576   -1.4580111317    4.4202909828   -1.6499917962
 12         -5.5323125859   -1.4580162439    4.4202866844   -1.6499915030
 13         -5.5323140836   -1.4580182832    4.4202850159   -1.6499914143
 14         -5.5323146847   -1.4580191002    4.4202843659   -1.6499913905
 15         -5.5323149258   -1.4580194290    4.4202841117   -1.6499913858
 16         -5.5323150224   -1.4580195619    4.4202840119   -1.6499913859
Atom SCF converged after  16 iterations to a total energy of     -5.53231502

Determining parallel strategy ...
... using space-filling curve
... NGWF load balancing: max     64;  min     64;  average     64
... Projector load balancing: max    128;  min    128;  average    128
... done
Calculating Ewald energy ...
              Ewald: real-space energy =    9498.235686
        Ewald: reciprocal-space energy =       0.096780
         Ewald: (sum_charge)**2 Energy =   11284.672060
         Ewald: (sum_charge**2) Energy =     892.131659
                          Ewald Energy =   -2678.471254
Basis initialisation ...... NGWF spheres initialised
... Projector spheres initialised
... NGWF tight boxes initialised
... Projector tight boxes initialised
... Tight-boxes gathered
... NGWF basis size (local,global):     693332  27907072
... PAW projector initialisation
... done

============================= Charge Augmentation ==============================
                           Aug box size:   11 x  11 x  11
================================================================================

========================== Sparse matrix information ===========================
                        Overlap matrix filling:  44.38%
                        Density kernel filling: 100.00%
              NGWF-Proj overlap matrix filling:  12.19%
                    Aug Overlap matrix filling:  47.03%
                    Hamiltonian matrix filling:  47.03%
                  NGWF diagonal matrix filling:   0.16%
                             KS matrix filling: 100.00% 
                           KSKS matrix filling: 100.00% 
================================================================================

Sparse matrix initialisation ... done
NGWF initialisation ...... done
============ Calculation of NGWF S^-1 using Hotelling algorithm ================ 
         Iteration  |  Frobenius norm and Maximum abs value    (of I-S*S_n^-1)   
               1       0.49128958E+02     0.97689663E+00
               2       0.47946469E+02     0.95559042E+00
               3       0.46155636E+02     0.91743531E+00
               4       0.43809538E+02     0.85434278E+00
               5       0.40982775E+02     0.76026551E+00
               6       0.37663030E+02     0.68349771E+00
               7       0.34143228E+02     0.63461325E+00
               8       0.30760533E+02     0.59351228E+00
               9       0.27186251E+02     0.54978682E+00
              10       0.22704979E+02     0.48233931E+00
              11       0.16869390E+02     0.37471588E+00
              12       0.10100354E+02     0.23094471E+00
              13       0.41325616E+01     0.93106797E-01
              14       0.82484717E+00     0.17212628E-01
              15       0.38739363E-01     0.71482269E-03
              16       0.10595720E-03     0.15485763E-05
              17       0.11754247E-08     0.10789480E-10
              18       0.77673761E-13     0.53290705E-14
================================================================================
Calculating core density ...
================================= Core Density =================================
               Core den box size:   21 x  21 x  21
================================================================================
 ... done
Up spin density kernel initialisation ...... done

Writing density kernel to file "3.3808312_GO_manual_4x64graphite.dkn" ... done

>>> Optimising kernel for current NGWFs:

--------------------------- Ensemble-DFT optimisation --------------------------
Running ScaLAPACK on   40 processor(s).

--------------------------------------------------------------------------------
  Iter                              Commutator    Free_energy(A=E-TS)     DeltaA
#    0                          0.000045709039   -3681.79494525635255  -3.68E+03

Step                       =       0.381966011250
Energy                     =   -3681.794905177881
Entropy (-TS)              =      -0.000040078156
Free energy (A=E-TS)       =   -3681.794945256353
Est. 0K Energy 0.5*(E+A)   =   -3681.794925217117
Residual Non-orthogonality =       0.000000000000
Residual N_electrons       =      -0.000000000315

Spin          Integrated_Ne            Fermi_level     Delta_Fermi_level
   1      2560.000000001556         0.202608858005              2.03E-01

                           Spin 1          
     Orb      H-eigenvalues     Occupancies
       1 |    -0.5137587768    1.0000000000 | 
                          ------
    1276 |     0.1694966305    0.9999712262 | 
    1277 |     0.1701030819    0.9999651531 | 
    1278 |     0.1701152225    0.9999650193 | 
    1279 |     0.1705513407    0.9999598546 | 
    1280 |     0.1711648956    0.9999512725 | 
                 - Gap at zero temperature -
    1281 |     0.2366007699    0.0000217952 | 
    1282 |     0.2366261475    0.0000216213 | 
    1283 |     0.2366456556    0.0000214885 | 
    1284 |     0.2368326464    0.0000202564 | 
    1285 |     0.2368580156    0.0000200948 | 
                          ------
    2560 |     1.0226435333    0.0000000000 | 

                       |  Abs_value |  Threshold | Converged
     Delta_Free_energy |   3.68E+03 |   1.00E-06 |        No
     Delta_Energy      |   3.68E+03 |   1.00E-04 |        No
     Delta_Entropy     |   4.01E-05 |   1.00E-04 |       Yes
     Commutator        |   4.57E-05 |   1.00E-05 |        No
     Delta_Fermi_level |   2.03E-01 |   1.00E-03 |        No

  Line search of the free energy minimum:
  Step_type        Step             Free_energy   Predicted_free_energy
.   Initial    0.000000    -3681.79494525635255
.    Trial1    0.381966    -3681.79708974462937
.    Trial2    0.618034    -3681.79743756103562
. Quadratic    0.609950    -3681.79743788294536    -3681.79743799895323

--------------------------------------------------------------------------------
  Iter                              Commutator    Free_energy(A=E-TS)     DeltaA
#    1                          0.000025242819   -3681.79743788294536  -2.49E-03

Step                       =       0.609949521110
Energy                     =   -3681.797400046875
Entropy (-TS)              =      -0.000037835675
Free energy (A=E-TS)       =   -3681.797437882945
Est. 0K Energy 0.5*(E+A)   =   -3681.797418964910
Residual Non-orthogonality =       0.000000000000
Residual N_electrons       =      -0.000000000395

Spin          Integrated_Ne            Fermi_level     Delta_Fermi_level
   1      2560.000000001925         0.205340373869              2.73E-03

                           Spin 1          
     Orb      H-eigenvalues     Occupancies
       1 |    -0.5132658704    1.0000000000 | 
                          ------
    1276 |     0.1721343928    0.9999720655 | 
    1277 |     0.1725593908    0.9999680535 | 
    1278 |     0.1725857138    0.9999677869 | 
    1279 |     0.1731976277    0.9999609206 | 
    1280 |     0.1736439198    0.9999550066 | 
                 - Gap at zero temperature -
    1281 |     0.2394658364    0.0000208952 | 
    1282 |     0.2395120289    0.0000205927 | 
    1283 |     0.2395433460    0.0000203900 | 
    1284 |     0.2397927252    0.0000188460 | 
    1285 |     0.2398176866    0.0000186980 | 
                          ------
    2560 |     1.0261235589    0.0000000000 | 

                       |  Abs_value |  Threshold | Converged
     Delta_Free_energy |   2.49E-03 |   1.00E-06 |        No
     Delta_Energy      |   2.49E-03 |   1.00E-04 |        No
     Delta_Entropy     |   2.24E-06 |   1.00E-04 |       Yes
     Commutator        |   2.52E-05 |   1.00E-05 |        No
     Delta_Fermi_level |   2.73E-03 |   1.00E-03 |        No

  Line search of the free energy minimum:
  Step_type        Step             Free_energy   Predicted_free_energy
.   Initial    0.000000    -3681.79743788294536
.    Trial1    0.609950    -3681.79684481095819
.    Trial2    0.232980    -3681.79799105521033
. Quadratic    0.250213    -3681.79799357562069    -3681.79799369170087

--------------------------------------------------------------------------------
  Iter                              Commutator    Free_energy(A=E-TS)     DeltaA
#    2                          0.000013783490   -3681.79799357562069  -5.56E-04

Step                       =       0.250212958307
Energy                     =   -3681.797956145686
Entropy (-TS)              =      -0.000037429701
Free energy (A=E-TS)       =   -3681.797993575621
Est. 0K Energy 0.5*(E+A)   =   -3681.797974860653
Residual Non-orthogonality =       0.000000000000
Residual N_electrons       =      -0.000000000234

Spin          Integrated_Ne            Fermi_level     Delta_Fermi_level
   1      2560.000000001135         0.205768730908              4.28E-04

                           Spin 1          
     Orb      H-eigenvalues     Occupancies
       1 |    -0.5131845893    1.0000000000 | 
                          ------
    1276 |     0.1724922344    0.9999726806 | 
    1277 |     0.1729789743    0.9999681419 | 
    1278 |     0.1730044127    0.9999678850 | 
    1279 |     0.1735528628    0.9999618126 | 
    1280 |     0.1740599245    0.9999551817 | 
                 - Gap at zero temperature -
    1281 |     0.2399487757    0.0000205382 | 
    1282 |     0.2399936576    0.0000202491 | 
    1283 |     0.2400224607    0.0000200658 | 
    1284 |     0.2402831222    0.0000184804 | 
    1285 |     0.2402845885    0.0000184718 | 
                          ------
    2560 |     1.0266724590    0.0000000000 | 

                       |  Abs_value |  Threshold | Converged
     Delta_Free_energy |   5.56E-04 |   1.00E-06 |        No
     Delta_Energy      |   5.56E-04 |   1.00E-04 |        No
     Delta_Entropy     |   4.06E-07 |   1.00E-04 |       Yes
     Commutator        |   1.38E-05 |   1.00E-05 |        No
     Delta_Fermi_level |   4.28E-04 |   1.00E-03 |       Yes

  Line search of the free energy minimum:
  Step_type        Step             Free_energy   Predicted_free_energy
.   Initial    0.000000    -3681.79799357562069
.    Trial1    0.250213    -3681.79814639729011
.    Trial2    0.536606    -3681.79810282864446
. Quadratic    0.339907    -3681.79815778482543    -3681.79815783500135

--------------------------------------------------------------------------------
  Iter                              Commutator    Free_energy(A=E-TS)     DeltaA
#    3                          0.000009619564   -3681.79815778482543  -1.64E-04

Step                       =       0.339907277257
Energy                     =   -3681.798120750495
Entropy (-TS)              =      -0.000037034155
Free energy (A=E-TS)       =   -3681.798157784825
Est. 0K Energy 0.5*(E+A)   =   -3681.798139267660
Residual Non-orthogonality =       0.000000000000
Residual N_electrons       =      -0.000000000176

Spin          Integrated_Ne            Fermi_level     Delta_Fermi_level
   1      2560.000000000852         0.206209070476              4.40E-04

                           Spin 1          
     Orb      H-eigenvalues     Occupancies
       1 |    -0.5130923469    1.0000000000 | 
                          ------
    1276 |     0.1728839742    0.9999730967 | 
    1277 |     0.1733936245    0.9999683993 | 
    1278 |     0.1734183496    0.9999681516 | 
    1279 |     0.1739442138    0.9999623988 | 
    1280 |     0.1744734425    0.9999555597 | 
                 - Gap at zero temperature -
    1281 |     0.2404317321    0.0000202636 | 
    1282 |     0.2404752957    0.0000199868 | 
    1283 |     0.2405032890    0.0000198109 | 
    1284 |     0.2407482463    0.0000183363 | 
    1285 |     0.2407674488    0.0000182255 | 
                          ------
    2560 |     1.0272552523    0.0000000000 | 

                       |  Abs_value |  Threshold | Converged
     Delta_Free_energy |   1.64E-04 |   1.00E-06 |        No
     Delta_Energy      |   1.65E-04 |   1.00E-04 |        No
     Delta_Entropy     |   3.96E-07 |   1.00E-04 |       Yes
     Commutator        |   9.62E-06 |   1.00E-05 |       Yes
     Delta_Fermi_level |   4.40E-04 |   1.00E-03 |       Yes

  Line search of the free energy minimum:
  Step_type        Step             Free_energy   Predicted_free_energy
.   Initial    0.000000    -3681.79815778482543
.    Trial1    0.339907    -3681.79822341944646
.    Trial2    0.592040    -3681.79810942788754
. Quadratic    0.258546    -3681.79823066422796    -3681.79823063353570

--------------------------------------------------------------------------------
  Iter                              Commutator    Free_energy(A=E-TS)     DeltaA
#    4                          0.000006566319   -3681.79823066422796  -7.29E-05

Step                       =       0.258546015742
Energy                     =   -3681.798193822437
Entropy (-TS)              =      -0.000036842227
Free energy (A=E-TS)       =   -3681.798230664228
Est. 0K Energy 0.5*(E+A)   =   -3681.798212243333
Residual Non-orthogonality =       0.000000000000
Residual N_electrons       =       0.000000000438

Spin          Integrated_Ne            Fermi_level     Delta_Fermi_level
   1      2559.999999997879         0.206431951658              2.23E-04

                           Spin 1          
[...]
 C   275 -- C   555       -0.09      5.37000
 C   274 -- C   554       -0.09      5.37000
 C   273 -- C   553       -0.09      5.37000
 C   272 -- C   552       -0.09      5.37000
 C   271 -- C   551       -0.09      5.37000
 C   270 -- C   550       -0.10      5.37000
 C   269 -- C   549       -0.10      5.37000
 C   268 -- C   548       -0.10      5.37000
 C   267 -- C   547       -0.10      5.37000
 C   266 -- C   546       -0.10      5.37000
 C   130 -- C   465       -0.09      5.37000
 C   129 -- C   464       -0.09      5.37000
 C   128 -- C   463       -0.09      5.37000
 C   127 -- C   462       -0.09      5.37000
 C   126 -- C   461       -0.09      5.37000
 C   240 -- C   525       -0.09      5.37000
 C   239 -- C   524       -0.09      5.37000
 C   238 -- C   523       -0.09      5.37000
 C   237 -- C   522       -0.09      5.37000
 C   236 -- C   521       -0.09      5.37000
 C    23 -- C   478       -0.09      5.37202
 C    49 -- C   469       -0.09      5.37202
 C    48 -- C   468       -0.09      5.37202
 C    47 -- C   467       -0.09      5.37202
 C    22 -- C   477       -0.09      5.37202
 C    46 -- C   466       -0.09      5.37202
 C    21 -- C   476       -0.09      5.37202
 C    25 -- C   480       -0.09      5.37202
 C    24 -- C   479       -0.09      5.37202
 C    50 -- C   470       -0.09      5.37202
 C    24 -- C   449       -0.09      5.37202
 C     6 -- C   416       -0.09      5.37202
 C    23 -- C   448       -0.09      5.37202
 C    22 -- C   447       -0.09      5.37202
 C    10 -- C   470       -0.09      5.37202
 C     5 -- C   450       -0.09      5.37202
 C    21 -- C   446       -0.09      5.37202
 C    10 -- C   420       -0.09      5.37202
 C     9 -- C   469       -0.09      5.37202
 C     9 -- C   419       -0.09      5.37202
 C     8 -- C   468       -0.09      5.37202
 C     4 -- C   449       -0.09      5.37202
 C     8 -- C   418       -0.09      5.37202
 C     2 -- C   447       -0.09      5.37202
 C     7 -- C   467       -0.09      5.37202
 C     7 -- C   417       -0.09      5.37202
 C     1 -- C   446       -0.09      5.37202
 C     6 -- C   466       -0.09      5.37202
 C    25 -- C   450       -0.09      5.37202
 C     3 -- C   448       -0.09      5.37202
 C   285 -- C   580       -0.09      5.37202
 C   284 -- C   579       -0.09      5.37202
 C   283 -- C   578       -0.09      5.37202
 C   282 -- C   577       -0.09      5.37202
 C   281 -- C   576       -0.09      5.37202
 C   260 -- C   605       -0.09      5.37202
 C   259 -- C   604       -0.09      5.37202
 C   258 -- C   603       -0.09      5.37202
 C   257 -- C   602       -0.09      5.37202
 C   256 -- C   601       -0.09      5.37202
 C   219 -- C   569       -0.09      5.37202
 C   218 -- C   568       -0.09      5.37202
 C   217 -- C   567       -0.09      5.37202
 C   216 -- C   566       -0.09      5.37202
 C   250 -- C   540       -0.09      5.37202
 C   249 -- C   539       -0.09      5.37202
 C   248 -- C   538       -0.09      5.37202
 C   247 -- C   537       -0.09      5.37202
 C   246 -- C   536       -0.09      5.37202
 C   220 -- C   570       -0.09      5.37202
 C   205 -- C   550       -0.09      5.37202
 C   204 -- C   549       -0.09      5.37202
 C   203 -- C   548       -0.09      5.37202
 C   202 -- C   547       -0.09      5.37202
 C   201 -- C   546       -0.09      5.37202
 C   260 -- C   550       -0.09      5.37202
 C   259 -- C   549       -0.09      5.37202
 C   258 -- C   548       -0.09      5.37202
 C   257 -- C   547       -0.09      5.37202
 C   256 -- C   546       -0.09      5.37202
 C   230 -- C   580       -0.09      5.37202
 C   230 -- C   525       -0.09      5.37202
 C   229 -- C   579       -0.09      5.37202
 C   229 -- C   524       -0.09      5.37202
 C   228 -- C   578       -0.09      5.37202
 C   228 -- C   523       -0.09      5.37202
 C   227 -- C   577       -0.09      5.37202
 C   227 -- C   522       -0.09      5.37202
 C   226 -- C   576       -0.09      5.37202
 C   226 -- C   521       -0.09      5.37202
 C   220 -- C   515       -0.09      5.37202
 C   219 -- C   514       -0.09      5.37202
 C   218 -- C   513       -0.09      5.37202
 C   217 -- C   512       -0.09      5.37202
 C   216 -- C   511       -0.09      5.37202
 C    11 -- C   331       -0.09      5.37202
 C   195 -- C   540       -0.09      5.37202
 C   195 -- C   500       -0.09      5.37202
 C   194 -- C   539       -0.09      5.37202
 C   194 -- C   499       -0.09      5.37202
 C   193 -- C   538       -0.09      5.37202
 C   193 -- C   498       -0.09      5.37202
 C   192 -- C   537       -0.09      5.37202
 C   192 -- C   497       -0.09      5.37202
 C   191 -- C   536       -0.09      5.37202
 C   191 -- C   496       -0.09      5.37202
 C   180 -- C   515       -0.09      5.37202
 C    40 -- C   365       -0.09      5.37202
 C   179 -- C   514       -0.09      5.37202
 C   178 -- C   513       -0.09      5.37202
 C   177 -- C   512       -0.09      5.37202
 C    39 -- C   364       -0.09      5.37202
 C   176 -- C   511       -0.09      5.37202
 C    38 -- C   363       -0.09      5.37202
 C    37 -- C   362       -0.09      5.37202
 C    36 -- C   361       -0.09      5.37202
 C   150 -- C   440       -0.09      5.37202
 C   149 -- C   439       -0.09      5.37202
 C   148 -- C   438       -0.09      5.37202
 C   147 -- C   437       -0.09      5.37202
 C   146 -- C   436       -0.09      5.37202
 C    15 -- C   335       -0.09      5.37202
 C    65 -- C   345       -0.09      5.37202
 C    64 -- C   344       -0.09      5.37202
 C   135 -- C   460       -0.09      5.37202
 C    63 -- C   343       -0.09      5.37202
 C   134 -- C   459       -0.09      5.37202
 C    30 -- C   325       -0.09      5.37202
 C   133 -- C   458       -0.09      5.37202
 C    62 -- C   342       -0.09      5.37202
 C    14 -- C   334       -0.09      5.37202
 C   132 -- C   457       -0.09      5.37202
 C   131 -- C   456       -0.09      5.37202
 C    61 -- C   341       -0.09      5.37202
 C    29 -- C   324       -0.09      5.37202
 C    28 -- C   323       -0.09      5.37202
 C    13 -- C   333       -0.09      5.37202
 C    27 -- C   322       -0.09      5.37202
 C    26 -- C   321       -0.09      5.37202
 C    12 -- C   332       -0.09      5.37202
 C    95 -- C   365       -0.09      5.37202
 C    94 -- C   364       -0.09      5.37202
 C    93 -- C   363       -0.09      5.37202
 C    92 -- C   362       -0.09      5.37202
 C    91 -- C   361       -0.09      5.37202
 C    65 -- C   395       -0.09      5.37202
 C    64 -- C   394       -0.09      5.37202
 C    63 -- C   393       -0.09      5.37202
 C    30 -- C   355       -0.09      5.37202
 C    62 -- C   392       -0.09      5.37202
 C    61 -- C   391       -0.09      5.37202
 C    29 -- C   354       -0.09      5.37202
 C    28 -- C   353       -0.09      5.37202
 C    27 -- C   352       -0.09      5.37202
 C    26 -- C   351       -0.09      5.37202
 C    55 -- C   335       -0.09      5.37202
 C    54 -- C   334       -0.09      5.37202
 C    53 -- C   333       -0.09      5.37202
 C    52 -- C   332       -0.09      5.37202
 C    51 -- C   331       -0.09      5.37202
 C    95 -- C   425       -0.09      5.37202
 C    94 -- C   424       -0.09      5.37202
 C    93 -- C   423       -0.09      5.37202
 C    92 -- C   422       -0.09      5.37202
 C    91 -- C   421       -0.09      5.37202
 C    85 -- C   355       -0.09      5.37202
 C    84 -- C   354       -0.09      5.37202
 C    83 -- C   353       -0.09      5.37202
 C    82 -- C   352       -0.09      5.37202
 C    81 -- C   351       -0.09      5.37202
 C   120 -- C   395       -0.09      5.37202
 C    55 -- C   385       -0.09      5.37202
 C   119 -- C   394       -0.09      5.37202
 C   118 -- C   393       -0.09      5.37202
 C   117 -- C   392       -0.09      5.37202
 C    54 -- C   384       -0.09      5.37202
 C   116 -- C   391       -0.09      5.37202
 C    53 -- C   383       -0.09      5.37202
 C    52 -- C   382       -0.09      5.37202
 C    51 -- C   381       -0.09      5.37202
 C   106 -- C   436       -0.09      5.37202
 C   106 -- C   376       -0.09      5.37202
 C    80 -- C   410       -0.09      5.37202
 C    79 -- C   409       -0.09      5.37202
 C    78 -- C   408       -0.09      5.37202
 C    77 -- C   407       -0.09      5.37202
 C    76 -- C   406       -0.09      5.37202
 C   135 -- C   410       -0.09      5.37202
 C   134 -- C   409       -0.09      5.37202
 C   133 -- C   408       -0.09      5.37202
 C   132 -- C   407       -0.09      5.37202
 C   131 -- C   406       -0.09      5.37202
 C   110 -- C   440       -0.09      5.37202
 C   110 -- C   380       -0.09      5.37202
 C   109 -- C   439       -0.09      5.37202
 C   109 -- C   379       -0.09      5.37202
 C   108 -- C   438       -0.09      5.37202
 C   108 -- C   378       -0.09      5.37202
 C   107 -- C   437       -0.09      5.37202
 C   107 -- C   377       -0.09      5.37202
 C   215 -- C   635       -0.09      5.38000
 C   214 -- C   634       -0.09      5.38000
 C   213 -- C   633       -0.09      5.38000
 C   212 -- C   632       -0.09      5.38000
 C   211 -- C   631       -0.09      5.38000
 C   190 -- C   620       -0.09      5.38000
 C   189 -- C   619       -0.09      5.38000
 C   188 -- C   618       -0.09      5.38000
 C   187 -- C   617       -0.09      5.38000
 C   186 -- C   616       -0.09      5.38000
 C   175 -- C   595       -0.09      5.38000
 C   174 -- C   594       -0.09      5.38000
 C   173 -- C   593       -0.09      5.38000
 C   172 -- C   592       -0.09      5.38000
 C   171 -- C   591       -0.09      5.38000
 C   245 -- C   640       -0.09      5.38000
 C   244 -- C   639       -0.09      5.38000
 C   243 -- C   638       -0.09      5.38000
 C   242 -- C   637       -0.09      5.38000
 C   241 -- C   636       -0.09      5.38000
==================================================


=================== Orbital energy and occupancy information ===================

      Total number of orbitals:    2560
        Occupancy sum (kernel):    1280.000000000
   Occupancy sum (eigenvalues):    1280.000000000
                 HOMO-LUMO gap:       0.063094074 Eh
                 Mid-gap level:       0.256286167 Eh

                        Orbital | Energy (Eh) | Occupancy
                            1    -0.465269865   1.0000000
                        .......   ...........   .........
                         1271     0.219205177   0.9999881
                         1272     0.219217405   0.9999881
                         1273     0.219673931   0.9999862
                         1274     0.219686134   0.9999862
                         1275     0.223288614   0.9999569
                         1276     0.223371170   0.9999558
                         1277     0.223742523   0.9999503
                         1278     0.223824920   0.9999490
                         1279     0.224296297   0.9999408
                         1280     0.224739130   0.9999319
                        ....... -- gap at 0K -- .........
                         1281     0.287833204   0.0000326
                         1282     0.287840487   0.0000325
                         1283     0.288093045   0.0000300
                         1284     0.288100360   0.0000299
                         1285     0.288544570   0.0000261
                         1286     0.288623509   0.0000255
                         1287     0.288819607   0.0000239
                         1288     0.288898491   0.0000233
                         1289     0.289134632   0.0000217
                         1290     0.289315160   0.0000204
                        .......   ...........   .........
                         2560     1.133933006   0.0000000

================================================================================

===================== Writing canonical molecular orbitals =====================
| Orbital  Energy (eV)  Norm     |
| HOMO      6.11546290  1.000000 | Writing "3.3808312_GO_manual_4x64graphite_HOMO.cube" ... done
Writing "3.3808312_GO_manual_4x64graphite_HOMO.dx" ... done
| LUMO      7.83234002  1.000000 | Writing "3.3808312_GO_manual_4x64graphite_LUMO.cube" ... done
Writing "3.3808312_GO_manual_4x64graphite_LUMO.dx" ... done
================================================================================
 
===================== Density of States (DOS) calculation ======================
Writing "3.3808312_GO_manual_4x64graphite_DOS.txt" ...  done
================================================================================
 
Writing bands to file "3.3808312_GO_manual_4x64graphite.val_bands" ... done
 
================ Projected Density of States (pDOS) calculation ================
 
Constructing AM resolved functions  ...... done
Writing NGWF plot files in formats: CUBE DX ...  done
 
Performing overlap integrals ...  done
 
Computing pDOS weights ...  done
 
All bands spilling parameter =   3.77 %
Occupancy-weighted spilling parameter =   0.92 %
 
 => Outputting data for OptaDOS <=
 
Writing pDOS weights to file "3.3808312_GO_manual_4x64graphite.val_pdos_bin" ... done
 
Writing band gradients to file "3.3808312_GO_manual_4x64graphite.val_dome_bin" ... done
 
Writing Castep output cell file to "3.3808312_GO_manual_4x64graphite-out.cell" ... done
 
 => Computing Gaussian smeared pDOS <= 
Writing "3.3808312_GO_manual_4x64graphite_PDOS.txt" ...  done
 
 => Computing Occupancy-weighted Gaussian smeared pDOS <= 
Writing "3.3808312_GO_manual_4x64graphite_occ_PDOS.txt" ...  done
  => Band centres: 
 S band centre of group 1:  -13.849645 eV
 P band centre of group 1:   -6.743958 eV
  Band centres done. <=
  => Integrated number of electrons in each AM band: 
 S num electrons of group 1:  574.657359
 P num electrons of group 1: 1961.888587
  Integrated number of electrons done. <=
================================================================================

------------------------------ TIMING INFORMATION ------------------------------
AVERAGE TIME:    4019.107s on     40 node(s)                                    
TOTAL TIME:      4019.108s on     40 node(s)                                    
================= AVERAGE TIMINGS FROM ALL NODES (CUMULATIVE) ==================
|| TAG                                    #calls    cpu time   %total  Gflops ||
|| work_imbalance                       :     1        0.00s   0.000%  ------ ||
|| paw_tcore_hartree_on_grid            :     1        0.01s   0.000%  ------ ||
|| paw_tcore_density                    :     1        0.01s   0.000%  ------ ||
|| paw_sphere_density_on_grid           :     1        0.02s   0.000%  ------ ||
|| sparse_set_to_garbage                :   171        0.03s   0.001%  ------ ||
|| paw_dij_hartree                      :   358        0.04s   0.001%  ------ ||
|| pseudo_make_structure_factor         :     1        0.06s   0.001%  ------ ||
|| basis_extract_function_from_box      :  1920        0.08s   0.002%  ------ ||
|| paw_species_calc_proj_prec_mat       :     1        0.12s   0.003%  ------ ||
|| paw_dataset_init                     :     1        0.15s   0.004%  ------ ||
|| density_init_guess_real              :     1        0.20s   0.005%  ------ ||
|| ngwfs_initialise_from_radial         :     2        0.66s   0.017%  ------ ||
|| restart_kernel_write                 :    16        0.89s   0.022%  ------ ||
|| dense_normal_eigensolve              :     1        0.98s   0.024%  ------ ||
|| sparse_init                          :     1        0.98s   0.024%  ------ ||
|| hartree_on_grid                      :   268        1.16s   0.029%  ------ ||
|| ewald_calculate_energy               :     1        2.62s   0.065%  ------ ||
|| projectors_init_fftbox_recip         :   151        2.88s   0.072%  ------ ||
|| fourier_apply_box_pair               :  2848        4.71s   0.117% 561.177 ||
|| basis_copy_function_to_box           : 25408        5.50s   0.137%  ------ ||
|| augmentation_screen_dij              :   273        6.13s   0.152%  ------ ||
|| sw_init                              :     1        6.73s   0.167%  ------ ||
|| sparse_embed_hotelling_invert_embed  :    29        8.40s   0.209%  ------ ||
|| ngwf_gradient_coeffs                 :    15       11.86s   0.295%  ------ ||
|| fourier_apply_cell_backward          :  8279       14.83s   0.369%  66.116 ||
|| fourier_apply_cell_forward           :  7744       16.18s   0.403%  56.666 ||
|| cell_grid_extract_box_real           : 10716       16.50s   0.411%  ------ ||
|| sparse_trace                         :  3244       19.91s   0.495%  ------ ||
|| cell_grid_deposit_box_real           : 34480       22.21s   0.553%  ------ ||
|| paw_dij_xc                           :   358       29.07s   0.723%  ------ ||
|| aug_nonlocal_mat                     :   343       40.52s   1.008%  ------ ||
|| density_fftbox_deposit_to_cell       : 17152       44.96s   1.119%  ------ ||
|| hamiltonian_energy_components        :     3       50.49s   1.256%  ------ ||
|| augmentation_density_on_grid         :   268       51.65s   1.285%  ------ ||
|| eigenstates_pdos                     :     1       54.91s   1.366%  ------ ||
|| eigenstates_calculate                :     1       59.18s   1.472%  ------ ||
|| function_ops_brappd_ketppd           :    60       62.21s   1.548%  ------ ||
|| nlxc_vdw_energy                      :   534       65.20s   1.622%  ------ ||
|| projectors_func_ovlp_box             :    30       69.22s   1.722%  ------ ||
|| xc_energy_potential                  :   267       75.92s   1.889%  ------ ||
|| properties_calculate                 :     1      107.12s   2.665%  ------ ||
|| integrals_kinetic                    :    29      107.54s   2.676%  ------ ||
|| dense_eigensolve                     :   235      114.72s   2.854%  ------ ||
|| restart_ngwfs_tightbox_output        :    14      130.70s   3.252%  ------ ||
|| potential_apply_to_ngwf_batch        :   336      131.80s   3.279%  ------ ||
|| sparse_product                       :  3268      144.89s   3.605%  ------ ||
|| basis_dot_function_with_box          : 8.360M     226.60s   5.638%  ------ ||
|| fourier_apply_box                    : 80000      248.46s   6.182% 979.250 ||
|| edft_diag_ngwf_ham                   :   234      258.31s   6.427%  ------ ||
|| projectors_gradient_batch            :    60      270.99s   6.742%  ------ ||
|| integrals_locpot_mat_els_batch       :   336      315.54s   7.851%  ------ ||
|| density_fftbox_interpolate_multiply  : 17152      332.83s   8.281%  ------ ||
|| projectors_grad_precond_batch        :    60      374.16s   9.310%  ------ ||
|| density_batch_interp_deposit         :  1072      419.26s  10.432%  ------ ||
|| integrals_locpot_dbl_grid            :    84      449.02s  11.172%  ------ ||
|| edft_apply_smearing_operator         :   234      506.69s  12.607%  ------ ||
|| basis_add_function_to_box            : 23.85M     621.68s  15.468%  ------ ||
|| ngwf_gradient_build_batch            :    60      690.53s  17.181%  ------ ||
|| density_batch_row_sums               :  1072      908.64s  22.608%  ------ ||
|| ngwf_gradient_batch                  :    60      927.48s  23.077%  ------ ||
|| ngwf_gradient_lnv                    :    15      957.27s  23.818%  ------ ||
|| density_on_dbl_grid                  :   268     1341.36s  33.374%  ------ ||
|| hamiltonian_lhxc_calculate           :   263     1445.63s  35.969%  ------ ||
|| edft_calculate                       :    15     2394.93s  59.589%  ------ ||
|| ngwf_cg_optimise                     :     1     3885.79s  96.683%  ------ ||
|| total_time                           :     1     4019.11s 100.000%  ------ ||
================================================================================
Overhead of generating timer report: 
- 0 ms averaging over threads,
- 5 ms ensuring consistency across MPI ranks,
- 0 ms printing in order.

Job completed: 26-02-2020 05:42 (-0000)

