 +---------------------------------------------------------------+
 |                                                               |
 |        ####### #     # ####### ####### ####### ######         |
 |        #     # ##    # #          #    #       #     #        |
 |        #     # # #   # #          #    #       #     #        |
 |        #     # #  #  # #####      #    #####   ######         |
 |        #     # #   # # #          #    #       #              |
 |        #     # #    ## #          #    #       #              |
 |        ####### #     # #######    #    ####### #              |
 |                                                               |
 |        Linear-Scaling Ab Initio Total Energy Program          |
 |                                                               |
 |          Release for academic collaborators of ODG            |
 |                                             Version 5.3.2.12  |
 |                                                               |
 +---------------------------------------------------------------+
 |                                                               |
 |  Authors:                                                     |
 |  Jacek Dziedzic, Peter D. Haynes, Nicholas D. M. Hine,        |
 |  Arash. A. Mostofi, Mike C. Payne and Chris-Kriton Skylaris   |
 |                                                               |
 |  Contributors:                                                |
 |  J. Aarons, L. Andrinopoulos, P. W. Avraam, R. A. Bell,       |
 |  A. Bhandari, G. A. Bramley, R. J. Charlton, S. J. Clark,     |
 |  R. J. Clements, G. C. Constantinescu, F. Corsetti,           |
 |  N. Corsini, O. Dieguez, S. M. M. Dubois, K. K. B. Duff,      |
 |  J. M. Escartin, A. Greco, H. Helal, Q. O. Hill, L. P. Lee,   |
 |  J.-H. Li, E. B. Linscott, G. Moynihan, D. D. O`Regan,        |
 |  O. K. Okan, M. J. S. Phipps, C. J. Pickard,                  |
 |  J. C. A. Prentice, M. I. J. Probert, L. E. Ratcliff,         |
 |  M. Robinson, A. Ruiz Serrano, J. S. Spencer, E. W. Tait,     |
 |  G. Teobaldi, D. Turban, V. Vitale, K. A. Wilkinson,          |
 |  C. Weber, J. C. Womack, N. Yeung and T. J. Zuehlsdorff       |
 |                                                               |
 |                                   Copyright (c) 2004-2020     |
 |                                                               |
 |  Please cite:                                                 |
 |  "Introducing ONETEP: Linear-scaling density functional       |
 |   simulations on parallel computers".                         |
 |   C.-K. Skylaris, P. D. Haynes, A. A. Mostofi, M. C. Payne.   |
 |   J. Chem. Phys. 122 084119 (2005).                           |
 |                                                               |
 |          in all publications arising from your use of ONETEP. |
 |                                                               |
 +---------------------------------------------------------------+
 |                                                               |
 |   ONETEP is based on developments described in the following  |
 |   publications:                                               |
 |                                                               |
 |  "Nonorthogonal generalized Wannier function pseudopotential  |
 |   plane-wave method".                                         |
 |   C.-K. Skylaris, A. A. Mostofi, P. D. Haynes, O. Dieguez,    |
 |   M. C. Payne.                                                |
 |   Phys. Rev. B 66 035119 (2002).                              |
 |                                                               |
 |  "Preconditioned iterative minimization for linear-scaling    |
 |   electronic structure calculations".                         |
 |   A. A. Mostofi, P. D. Haynes, C.-K. Skylaris, M. C. Payne.   |
 |   J. Chem. Phys. 119(17), pp.8842-8848 (2003).                |
 |                                                               |
 |  "Total-energy calculations on a real space grid with         |
 |   localized functions and a plane-wave basis".                |
 |   A. A. Mostofi, C.-K. Skylaris, P. D. Haynes, M. C. Payne.   |
 |   Comput. Phys. Commun. 147, pp.788-802 (2002).               |
 |                                                               |
 |  "Accurate kinetic energy evaluation in electronic structure  |
 |   calculations with localized functions on real space grids"  |
 |   C.-K. Skylaris, A. A. Mostofi, P. D. Haynes, C. J. Pickard, |
 |   M. C. Payne.                                                |
 |   Comput. Phys. Commun. 140, pp.315-322 (2001).               |
 |                                                               |
 |  "Accurate ionic forces and geometry optimization in linear-  |
 |   scaling density-functional theory with local orbitals"      |
 |   N. D. M. Hine, M. Robinson, P. D. Haynes, C.-K. Skylaris,   |
 |   M. C. Payne, and A. A. Mostofi.                             |
 |   Phys. Rev. B 83 195102 (2011).                              |
 |                                                               |
 +---------------------------------------------------------------+

Job started: 26-02-2020 05:43 (-0000)
 
Reading parameters from file "3.622312_GO_manual_4x64graphite.dat" ...

WARNING: "cutoff_energy" not specified, but "psinc_spacing" specified.
         Using the latter to set the KE cutoff energy to  732.32021eV,
         thus *overriding* the default.

... done

If your calculation crashes here, before "Checking processes and threads..."
is displayed, then your stack size is insufficient.
If so, use "ulimit -s unlimited" at runtime.
You can disable this check with "check_stack_size F".

Checking processes and threads...
   Determining the default number of threads...
      No default threads set at compilation time: defaulting to 1.
      OpenMP library call suggests 4 threads.
      Hybrid MPI-OpenMP compilation detected.
      Number of MPI processes > 1.
      OMP_NUM_THREADS environment variable present and
      its value matches the one obtained from the OpenMP library call.
      Using this value as default.
      Default threads: 4
      Default applies to threads_max and threads_num_fftboxes.
      Settings in the input file override this default.
   ... done

   Running with 40 MPI processes.
   There are 10 MPI processes running on the same node as the root process.
   Each MPI process is using: 
               1 threads for simulation cell FFTs.
               1 threads for parallel FFT box operations.
               4 threads for loops over batched FFT box operations.
               4 threads in other parallel regions.
... done

Basic input checks...
Resetting ngwf_cg_rotate to TRUE for EDFT calculations
... done

Reading geometry and species blocks from file "3.622312_GO_manual_4x64graphite.dat" ...
    
  PSINC grid spacing along a1 set to   0.511215680000a0 from input file.
  PSINC grid spacing along a2 set to   0.531284090000a0 from input file.
  PSINC grid spacing along a3 set to   0.507051230000a0 from input file.
  Number of PPD points along a3 set to 1.  This is 
  the default value, it may have been provided also in the input file.
... done
 Writing xyz coordinates to file "3.622312_GO_manual_4x64graphite.xyz" ... done


--------------------------------------------------------------------------------
---------------------------------- INPUT FILE ----------------------------------
--------------------------------------------------------------------------------

task : singlepoint                                                              
do_properties : true                                                            
dx_format T                                                                     
edft T                                                                          
output_detail VERBOSE                                                           
write_xyz T                                                                     
xc_functional VDWDF2                                                            
PSINC_SPACING 0.51121568 0.53128409 0.50705123                                  
paw T                                                                           
pdos_max_l = 2                                                                  
dos_smear  0.1 eV                                                               
popn_calculate T                                                                
PDOS_PSEUDOATOMIC T                                                             
PDOS_REDUCE_SWS F                                                               
PDOS_CONSTRUCT_BASIS F                                                          
PDOS_LOWDIN T                                                                   
PDOS_ORTH_ATOM_BLOCKS F                                                         
PDOS_LCAO_OPTIMIZE F                                                            
pdos_optados_output T                                                           
homo_plot 0                                                                     
lumo_plot 0                                                                     
homo_dens_plot -1                                                               
lumo_dens_plot -1                                                               
%BLOCK SPECIES                                                                  
C C 6 4 9.0                                                                     
%ENDBLOCK SPECIES                                                               
%BLOCK SPECIES_POT                                                              
C "~/pp/paw/c_pbe_abinit.paw"                                                   
%ENDBLOCK SPECIES_POT                                                           
%BLOCK SPECIES_ATOMIC_SET                                                       
C "SOLVE conf=2s2 2p2"                                                          
%ENDBLOCK SPECIES_ATOMIC_SET                                                    
%BLOCK LATTICE_CART                                                             
32.21  0.00  0.00                                                               
0.00 18.59  0.00                                                                
0.00  0.00 68.45                                                                
%ENDBLOCK LATTICE_CART                                                          
%BLOCK POSITIONS_ABS                                                            
C  0.00  0.00  3.42                                                             
C  0.00  0.00 17.11                                                             
C  0.00  0.00 30.80                                                             
C  0.00  0.00 44.49                                                             
C  0.00  0.00 58.18                                                             
C  0.00  4.65  3.42                                                             
C  0.00  4.65 17.11                                                             
C  0.00  4.65 30.80                                                             
C  0.00  4.65 44.49                                                             
C  0.00  4.65 58.18                                                             
C  4.03  2.32  3.42                                                             
C  4.03  2.32 17.11                                                             
C  4.03  2.32 30.80                                                             
C  4.03  2.32 44.49                                                             
C  4.03  2.32 58.18                                                             
C  8.05  0.00  3.42                                                             
C  8.05  0.00 17.11                                                             
C  8.05  0.00 30.80                                                             
C  8.05  0.00 44.49                                                             
C  8.05  0.00 58.18                                                             
C  0.00  9.30  3.42                                                             
C  0.00  9.30 17.11                                                             
C  0.00  9.30 30.80                                                             
C  0.00  9.30 44.49                                                             
C  0.00  9.30 58.18                                                             
C  4.03  6.97  3.42                                                             
C  4.03  6.97 17.11                                                             
C  4.03  6.97 30.80                                                             
C  4.03  6.97 44.49                                                             
C  4.03  6.97 58.18                                                             
C  8.05  4.65  3.42                                                             
C  8.05  4.65 17.11                                                             
C  8.05  4.65 30.80                                                             
C  8.05  4.65 44.49                                                             
C  8.05  4.65 58.18                                                             
C 12.08  2.32  3.42                                                             
C 12.08  2.32 17.11                                                             
C 12.08  2.32 30.80                                                             
C 12.08  2.32 44.49                                                             
C 12.08  2.32 58.18                                                             
C 16.10  0.00  3.42                                                             
C 16.10  0.00 17.11                                                             
C 16.10  0.00 30.80                                                             
C 16.10  0.00 44.49                                                             
C 16.10  0.00 58.18                                                             
C  0.00 13.95  3.42                                                             
C  0.00 13.95 17.11                                                             
C  0.00 13.95 30.80                                                             
C  0.00 13.95 44.49                                                             
C  0.00 13.95 58.18                                                             
C  4.03 11.62  3.42                                                             
C  4.03 11.62 17.11                                                             
C  4.03 11.62 30.80                                                             
C  4.03 11.62 44.49                                                             
C  4.03 11.62 58.18                                                             
C  8.05  9.30  3.42                                                             
C  8.05  9.30 17.11                                                             
C  8.05  9.30 30.80                                                             
C  8.05  9.30 44.49                                                             
C  8.05  9.30 58.18                                                             
C 12.08  6.97  3.42                                                             
C 12.08  6.97 17.11                                                             
C 12.08  6.97 30.80                                                             
C 12.08  6.97 44.49                                                             
C 12.08  6.97 58.18                                                             
C 16.10  4.65  3.42                                                             
C 16.10  4.65 17.11                                                             
C 16.10  4.65 30.80                                                             
C 16.10  4.65 44.49                                                             
C 16.10  4.65 58.18                                                             
C 20.13  2.32  3.42                                                             
C 20.13  2.32 17.11                                                             
C 20.13  2.32 30.80                                                             
C 20.13  2.32 44.49                                                             
C 20.13  2.32 58.18                                                             
C 24.16  0.00  3.42                                                             
C 24.16  0.00 17.11                                                             
C 24.16  0.00 30.80                                                             
C 24.16  0.00 44.49                                                             
C 24.16  0.00 58.18                                                             
C  4.03 16.27  3.42                                                             
C  4.03 16.27 17.11                                                             
C  4.03 16.27 30.80                                                             
C  4.03 16.27 44.49                                                             
C  4.03 16.27 58.18                                                             
C  8.05 13.95  3.42                                                             
C  8.05 13.95 17.11                                                             
C  8.05 13.95 30.80                                                             
C  8.05 13.95 44.49                                                             
C  8.05 13.95 58.18                                                             
C 12.08 11.62  3.42                                                             
C 12.08 11.62 17.11                                                             
C 12.08 11.62 30.80                                                             
C 12.08 11.62 44.49                                                             
C 12.08 11.62 58.18                                                             
C 16.10  9.30  3.42                                                             
C 16.10  9.30 17.11                                                             
C 16.10  9.30 30.80                                                             
C 16.10  9.30 44.49                                                             
C 16.10  9.30 58.18                                                             
C 20.13  6.97  3.42                                                             
C 20.13  6.97 17.11                                                             
C 20.13  6.97 30.80                                                             
C 20.13  6.97 44.49                                                             
C 20.13  6.97 58.18                                                             
C 24.16  4.65  3.42                                                             
C 24.16  4.65 17.11                                                             
C 24.16  4.65 30.80                                                             
C 24.16  4.65 44.49                                                             
C 24.16  4.65 58.18                                                             
C 28.18  2.32  3.42                                                             
C 28.18  2.32 17.11                                                             
C 28.18  2.32 30.80                                                             
C 28.18  2.32 44.49                                                             
C 28.18  2.32 58.18                                                             
C 12.08 16.27  3.42                                                             
C 12.08 16.27 17.11                                                             
C 12.08 16.27 30.80                                                             
C 12.08 16.27 44.49                                                             
C 12.08 16.27 58.18                                                             
C 16.10 13.95  3.42                                                             
C 16.10 13.95 17.11                                                             
C 16.10 13.95 30.80                                                             
C 16.10 13.95 44.49                                                             
C 16.10 13.95 58.18                                                             
C 20.13 11.62  3.42                                                             
C 20.13 11.62 17.11                                                             
C 20.13 11.62 30.80                                                             
C 20.13 11.62 44.49                                                             
C 20.13 11.62 58.18                                                             
C 24.16  9.30  3.42                                                             
C 24.16  9.30 17.11                                                             
C 24.16  9.30 30.80                                                             
C 24.16  9.30 44.49                                                             
C 24.16  9.30 58.18                                                             
C 28.18  6.97  3.42                                                             
C 28.18  6.97 17.11                                                             
C 28.18  6.97 30.80                                                             
C 28.18  6.97 44.49                                                             
C 28.18  6.97 58.18                                                             
C 20.13 16.27  3.42                                                             
C 20.13 16.27 17.11                                                             
C 20.13 16.27 30.80                                                             
C 20.13 16.27 44.49                                                             
C 20.13 16.27 58.18                                                             
C 24.16 13.95  3.42                                                             
C 24.16 13.95 17.11                                                             
C 24.16 13.95 30.80                                                             
C 24.16 13.95 44.49                                                             
C 24.16 13.95 58.18                                                             
C 28.18 11.62  3.42                                                             
C 28.18 11.62 17.11                                                             
C 28.18 11.62 30.80                                                             
C 28.18 11.62 44.49                                                             
C 28.18 11.62 58.18                                                             
C 28.18 16.27  3.42                                                             
C 28.18 16.27 17.11                                                             
C 28.18 16.27 30.80                                                             
C 28.18 16.27 44.49                                                             
C 28.18 16.27 58.18                                                             
C  0.00  0.00 10.27                                                             
C  0.00  0.00 23.96                                                             
C  0.00  0.00 37.65                                                             
C  0.00  0.00 51.34                                                             
C  0.00  0.00 65.03                                                             
C  0.00  4.65 10.27                                                             
C  0.00  4.65 23.96                                                             
C  0.00  4.65 37.65                                                             
C  0.00  4.65 51.34                                                             
C  0.00  4.65 65.03                                                             
C  4.03  2.32 10.27                                                             
C  4.03  2.32 23.96                                                             
C  4.03  2.32 37.65                                                             
C  4.03  2.32 51.34                                                             
C  4.03  2.32 65.03                                                             
C  8.05  0.00 10.27                                                             
C  8.05  0.00 23.96                                                             
C  8.05  0.00 37.65                                                             
C  8.05  0.00 51.34                                                             
C  8.05  0.00 65.03                                                             
C  0.00  9.30 10.27                                                             
C  0.00  9.30 23.96                                                             
C  0.00  9.30 37.65                                                             
C  0.00  9.30 51.34                                                             
C  0.00  9.30 65.03                                                             
C  4.03  6.97 10.27                                                             
C  4.03  6.97 23.96                                                             
C  4.03  6.97 37.65                                                             
C  4.03  6.97 51.34                                                             
C  4.03  6.97 65.03                                                             
C  8.05  4.65 10.27                                                             
C  8.05  4.65 23.96                                                             
C  8.05  4.65 37.65                                                             
C  8.05  4.65 51.34                                                             
C  8.05  4.65 65.03                                                             
C 12.08  2.32 10.27                                                             
C 12.08  2.32 23.96                                                             
C 12.08  2.32 37.65                                                             
C 12.08  2.32 51.34                                                             
C 12.08  2.32 65.03                                                             
C 16.10  0.00 10.27                                                             
C 16.10  0.00 23.96                                                             
C 16.10  0.00 37.65                                                             
C 16.10  0.00 51.34                                                             
C 16.10  0.00 65.03                                                             
C  0.00 13.95 10.27                                                             
C  0.00 13.95 23.96                                                             
C  0.00 13.95 37.65                                                             
C  0.00 13.95 51.34                                                             
C  0.00 13.95 65.03                                                             
C  4.03 11.62 10.27                                                             
C  4.03 11.62 23.96                                                             
C  4.03 11.62 37.65                                                             
C  4.03 11.62 51.34                                                             
C  4.03 11.62 65.03                                                             
C  8.05  9.30 10.27                                                             
C  8.05  9.30 23.96                                                             
C  8.05  9.30 37.65                                                             
C  8.05  9.30 51.34                                                             
C  8.05  9.30 65.03                                                             
C 12.08  6.97 10.27                                                             
C 12.08  6.97 23.96                                                             
C 12.08  6.97 37.65                                                             
C 12.08  6.97 51.34                                                             
C 12.08  6.97 65.03                                                             
C 16.10  4.65 10.27                                                             
C 16.10  4.65 23.96                                                             
C 16.10  4.65 37.65                                                             
C 16.10  4.65 51.34                                                             
C 16.10  4.65 65.03                                                             
C 20.13  2.32 10.27                                                             
C 20.13  2.32 23.96                                                             
C 20.13  2.32 37.65                                                             
C 20.13  2.32 51.34                                                             
C 20.13  2.32 65.03                                                             
C 24.16  0.00 10.27                                                             
C 24.16  0.00 23.96                                                             
C 24.16  0.00 37.65                                                             
C 24.16  0.00 51.34                                                             
C 24.16  0.00 65.03                                                             
C  4.03 16.27 10.27                                                             
C  4.03 16.27 23.96                                                             
C  4.03 16.27 37.65                                                             
C  4.03 16.27 51.34                                                             
C  4.03 16.27 65.03                                                             
C  8.05 13.95 10.27                                                             
C  8.05 13.95 23.96                                                             
C  8.05 13.95 37.65                                                             
C  8.05 13.95 51.34                                                             
C  8.05 13.95 65.03                                                             
C 12.08 11.62 10.27                                                             
C 12.08 11.62 23.96                                                             
C 12.08 11.62 37.65                                                             
C 12.08 11.62 51.34                                                             
C 12.08 11.62 65.03                                                             
C 16.10  9.30 10.27                                                             
C 16.10  9.30 23.96                                                             
C 16.10  9.30 37.65                                                             
C 16.10  9.30 51.34                                                             
C 16.10  9.30 65.03                                                             
C 20.13  6.97 10.27                                                             
C 20.13  6.97 23.96                                                             
C 20.13  6.97 37.65                                                             
C 20.13  6.97 51.34                                                             
C 20.13  6.97 65.03                                                             
C 24.16  4.65 10.27                                                             
C 24.16  4.65 23.96                                                             
C 24.16  4.65 37.65                                                             
C 24.16  4.65 51.34                                                             
C 24.16  4.65 65.03                                                             
C 28.18  2.32 10.27                                                             
C 28.18  2.32 23.96                                                             
C 28.18  2.32 37.65                                                             
C 28.18  2.32 51.34                                                             
C 28.18  2.32 65.03                                                             
C 12.08 16.27 10.27                                                             
C 12.08 16.27 23.96                                                             
C 12.08 16.27 37.65                                                             
C 12.08 16.27 51.34                                                             
C 12.08 16.27 65.03                                                             
C 16.10 13.95 10.27                                                             
C 16.10 13.95 23.96                                                             
C 16.10 13.95 37.65                                                             
C 16.10 13.95 51.34                                                             
C 16.10 13.95 65.03                                                             
C 20.13 11.62 10.27                                                             
C 20.13 11.62 23.96                                                             
C 20.13 11.62 37.65                                                             
C 20.13 11.62 51.34                                                             
C 20.13 11.62 65.03                                                             
C 24.16  9.30 10.27                                                             
C 24.16  9.30 23.96                                                             
C 24.16  9.30 37.65                                                             
C 24.16  9.30 51.34                                                             
C 24.16  9.30 65.03                                                             
C 28.18  6.97 10.27                                                             
C 28.18  6.97 23.96                                                             
C 28.18  6.97 37.65                                                             
C 28.18  6.97 51.34                                                             
C 28.18  6.97 65.03                                                             
C 20.13 16.27 10.27                                                             
C 20.13 16.27 23.96                                                             
C 20.13 16.27 37.65                                                             
C 20.13 16.27 51.34                                                             
C 20.13 16.27 65.03                                                             
C 24.16 13.95 10.27                                                             
C 24.16 13.95 23.96                                                             
C 24.16 13.95 37.65                                                             
C 24.16 13.95 51.34                                                             
C 24.16 13.95 65.03                                                             
C 28.18 11.62 10.27                                                             
C 28.18 11.62 23.96                                                             
C 28.18 11.62 37.65                                                             
C 28.18 11.62 51.34                                                             
C 28.18 11.62 65.03                                                             
C 28.18 16.27 10.27                                                             
C 28.18 16.27 23.96                                                             
C 28.18 16.27 37.65                                                             
C 28.18 16.27 51.34                                                             
C 28.18 16.27 65.03                                                             
C  1.34  2.32  3.42                                                             
C  1.34  2.32 17.11                                                             
C  1.34  2.32 30.80                                                             
C  1.34  2.32 44.49                                                             
C  1.34  2.32 58.18                                                             
C  5.37  0.00  3.42                                                             
C  5.37  0.00 17.11                                                             
C  5.37  0.00 30.80                                                             
C  5.37  0.00 44.49                                                             
C  5.37  0.00 58.18                                                             
C  1.34  6.97  3.42                                                             
C  1.34  6.97 17.11                                                             
C  1.34  6.97 30.80                                                             
C  1.34  6.97 44.49                                                             
C  1.34  6.97 58.18                                                             
C  5.37  4.65  3.42                                                             
C  5.37  4.65 17.11                                                             
C  5.37  4.65 30.80                                                             
C  5.37  4.65 44.49                                                             
C  5.37  4.65 58.18                                                             
C  9.39  2.32  3.42                                                             
C  9.39  2.32 17.11                                                             
C  9.39  2.32 30.80                                                             
C  9.39  2.32 44.49                                                             
C  9.39  2.32 58.18                                                             
C 13.42  0.00  3.42                                                             
C 13.42  0.00 17.11                                                             
C 13.42  0.00 30.80                                                             
C 13.42  0.00 44.49                                                             
C 13.42  0.00 58.18                                                             
C  1.34 11.62  3.42                                                             
C  1.34 11.62 17.11                                                             
C  1.34 11.62 30.80                                                             
C  1.34 11.62 44.49                                                             
C  1.34 11.62 58.18                                                             
C  5.37  9.30  3.42                                                             
C  5.37  9.30 17.11                                                             
C  5.37  9.30 30.80                                                             
C  5.37  9.30 44.49                                                             
C  5.37  9.30 58.18                                                             
C  9.39  6.97  3.42                                                             
C  9.39  6.97 17.11                                                             
C  9.39  6.97 30.80                                                             
C  9.39  6.97 44.49                                                             
C  9.39  6.97 58.18                                                             
C 13.42  4.65  3.42                                                             
C 13.42  4.65 17.11                                                             
C 13.42  4.65 30.80                                                             
C 13.42  4.65 44.49                                                             
C 13.42  4.65 58.18                                                             
C 17.45  2.32  3.42                                                             
C 17.45  2.32 17.11                                                             
C 17.45  2.32 30.80                                                             
C 17.45  2.32 44.49                                                             
C 17.45  2.32 58.18                                                             
C 21.47  0.00  3.42                                                             
C 21.47  0.00 17.11                                                             
C 21.47  0.00 30.80                                                             
C 21.47  0.00 44.49                                                             
C 21.47  0.00 58.18                                                             
C  1.34 16.27  3.42                                                             
C  1.34 16.27 17.11                                                             
C  1.34 16.27 30.80                                                             
C  1.34 16.27 44.49                                                             
C  1.34 16.27 58.18                                                             
C  5.37 13.95  3.42                                                             
C  5.37 13.95 17.11                                                             
C  5.37 13.95 30.80                                                             
C  5.37 13.95 44.49                                                             
C  5.37 13.95 58.18                                                             
C  9.39 11.62  3.42                                                             
C  9.39 11.62 17.11                                                             
C  9.39 11.62 30.80                                                             
C  9.39 11.62 44.49                                                             
C  9.39 11.62 58.18                                                             
C 13.42  9.30  3.42                                                             
C 13.42  9.30 17.11                                                             
C 13.42  9.30 30.80                                                             
C 13.42  9.30 44.49                                                             
C 13.42  9.30 58.18                                                             
C 17.45  6.97  3.42                                                             
C 17.45  6.97 17.11                                                             
C 17.45  6.97 30.80                                                             
C 17.45  6.97 44.49                                                             
C 17.45  6.97 58.18                                                             
C 21.47  4.65  3.42                                                             
C 21.47  4.65 17.11                                                             
C 21.47  4.65 30.80                                                             
C 21.47  4.65 44.49                                                             
C 21.47  4.65 58.18                                                             
C 25.50  2.32  3.42                                                             
C 25.50  2.32 17.11                                                             
C 25.50  2.32 30.80                                                             
C 25.50  2.32 44.49                                                             
C 25.50  2.32 58.18                                                             
C 29.52  0.00  3.42                                                             
C 29.52  0.00 17.11                                                             
C 29.52  0.00 30.80                                                             
C 29.52  0.00 44.49                                                             
C 29.52  0.00 58.18                                                             
C  9.39 16.27  3.42                                                             
C  9.39 16.27 17.11                                                             
C  9.39 16.27 30.80                                                             
C  9.39 16.27 44.49                                                             
C  9.39 16.27 58.18                                                             
C 13.42 13.95  3.42                                                             
C 13.42 13.95 17.11                                                             
C 13.42 13.95 30.80                                                             
C 13.42 13.95 44.49                                                             
C 13.42 13.95 58.18                                                             
C 17.45 11.62  3.42                                                             
C 17.45 11.62 17.11                                                             
C 17.45 11.62 30.80                                                             
C 17.45 11.62 44.49                                                             
C 17.45 11.62 58.18                                                             
C 21.47  9.30  3.42                                                             
C 21.47  9.30 17.11                                                             
C 21.47  9.30 30.80                                                             
C 21.47  9.30 44.49                                                             
C 21.47  9.30 58.18                                                             
C 25.50  6.97  3.42                                                             
C 25.50  6.97 17.11                                                             
C 25.50  6.97 30.80                                                             
C 25.50  6.97 44.49                                                             
C 25.50  6.97 58.18                                                             
C 29.52  4.65  3.42                                                             
C 29.52  4.65 17.11                                                             
C 29.52  4.65 30.80                                                             
C 29.52  4.65 44.49                                                             
C 29.52  4.65 58.18                                                             
C 17.45 16.27  3.42                                                             
C 17.45 16.27 17.11                                                             
C 17.45 16.27 30.80                                                             
C 17.45 16.27 44.49                                                             
C 17.45 16.27 58.18                                                             
C 21.47 13.95  3.42                                                             
C 21.47 13.95 17.11                                                             
C 21.47 13.95 30.80                                                             
C 21.47 13.95 44.49                                                             
C 21.47 13.95 58.18                                                             
C 25.50 11.62  3.42                                                             
C 25.50 11.62 17.11                                                             
C 25.50 11.62 30.80                                                             
C 25.50 11.62 44.49                                                             
C 25.50 11.62 58.18                                                             
C 29.52  9.30  3.42                                                             
C 29.52  9.30 17.11                                                             
C 29.52  9.30 30.80                                                             
C 29.52  9.30 44.49                                                             
C 29.52  9.30 58.18                                                             
C 25.50 16.27  3.42                                                             
C 25.50 16.27 17.11                                                             
C 25.50 16.27 30.80                                                             
C 25.50 16.27 44.49                                                             
C 25.50 16.27 58.18                                                             
C 29.52 13.95  3.42                                                             
C 29.52 13.95 17.11                                                             
C 29.52 13.95 30.80                                                             
C 29.52 13.95 44.49                                                             
C 29.52 13.95 58.18                                                             
C  2.68  0.00 10.27                                                             
C  2.68  0.00 23.96                                                             
C  2.68  0.00 37.65                                                             
C  2.68  0.00 51.34                                                             
C  2.68  0.00 65.03                                                             
C  2.68  4.65 10.27                                                             
C  2.68  4.65 23.96                                                             
C  2.68  4.65 37.65                                                             
C  2.68  4.65 51.34                                                             
C  2.68  4.65 65.03                                                             
C  6.71  2.32 10.27                                                             
C  6.71  2.32 23.96                                                             
C  6.71  2.32 37.65                                                             
C  6.71  2.32 51.34                                                             
C  6.71  2.32 65.03                                                             
C 10.74  0.00 10.27                                                             
C 10.74  0.00 23.96                                                             
C 10.74  0.00 37.65                                                             
C 10.74  0.00 51.34                                                             
C 10.74  0.00 65.03                                                             
C  2.68  9.30 10.27                                                             
C  2.68  9.30 23.96                                                             
C  2.68  9.30 37.65                                                             
C  2.68  9.30 51.34                                                             
C  2.68  9.30 65.03                                                             
C  6.71  6.97 10.27                                                             
C  6.71  6.97 23.96                                                             
C  6.71  6.97 37.65                                                             
C  6.71  6.97 51.34                                                             
C  6.71  6.97 65.03                                                             
C 10.74  4.65 10.27                                                             
C 10.74  4.65 23.96                                                             
C 10.74  4.65 37.65                                                             
C 10.74  4.65 51.34                                                             
C 10.74  4.65 65.03                                                             
C 14.76  2.32 10.27                                                             
C 14.76  2.32 23.96                                                             
C 14.76  2.32 37.65                                                             
C 14.76  2.32 51.34                                                             
C 14.76  2.32 65.03                                                             
C 18.79  0.00 10.27                                                             
C 18.79  0.00 23.96                                                             
C 18.79  0.00 37.65                                                             
C 18.79  0.00 51.34                                                             
C 18.79  0.00 65.03                                                             
C  2.68 13.95 10.27                                                             
C  2.68 13.95 23.96                                                             
C  2.68 13.95 37.65                                                             
C  2.68 13.95 51.34                                                             
C  2.68 13.95 65.03                                                             
C  6.71 11.62 10.27                                                             
C  6.71 11.62 23.96                                                             
C  6.71 11.62 37.65                                                             
C  6.71 11.62 51.34                                                             
C  6.71 11.62 65.03                                                             
C 10.74  9.30 10.27                                                             
C 10.74  9.30 23.96                                                             
C 10.74  9.30 37.65                                                             
C 10.74  9.30 51.34                                                             
C 10.74  9.30 65.03                                                             
C 14.76  6.97 10.27                                                             
C 14.76  6.97 23.96                                                             
C 14.76  6.97 37.65                                                             
C 14.76  6.97 51.34                                                             
C 14.76  6.97 65.03                                                             
C 18.79  4.65 10.27                                                             
C 18.79  4.65 23.96                                                             
C 18.79  4.65 37.65                                                             
C 18.79  4.65 51.34                                                             
C 18.79  4.65 65.03                                                             
C 22.81  2.32 10.27                                                             
C 22.81  2.32 23.96                                                             
C 22.81  2.32 37.65                                                             
C 22.81  2.32 51.34                                                             
C 22.81  2.32 65.03                                                             
C 26.84  0.00 10.27                                                             
C 26.84  0.00 23.96                                                             
C 26.84  0.00 37.65                                                             
C 26.84  0.00 51.34                                                             
C 26.84  0.00 65.03                                                             
C  6.71 16.27 10.27                                                             
C  6.71 16.27 23.96                                                             
C  6.71 16.27 37.65                                                             
C  6.71 16.27 51.34                                                             
C  6.71 16.27 65.03                                                             
C 10.74 13.95 10.27                                                             
C 10.74 13.95 23.96                                                             
C 10.74 13.95 37.65                                                             
C 10.74 13.95 51.34                                                             
C 10.74 13.95 65.03                                                             
C 14.76 11.62 10.27                                                             
C 14.76 11.62 23.96                                                             
C 14.76 11.62 37.65                                                             
C 14.76 11.62 51.34                                                             
C 14.76 11.62 65.03                                                             
C 18.79  9.30 10.27                                                             
C 18.79  9.30 23.96                                                             
C 18.79  9.30 37.65                                                             
C 18.79  9.30 51.34                                                             
C 18.79  9.30 65.03                                                             
C 22.81  6.97 10.27                                                             
C 22.81  6.97 23.96                                                             
C 22.81  6.97 37.65                                                             
C 22.81  6.97 51.34                                                             
C 22.81  6.97 65.03                                                             
C 26.84  4.65 10.27                                                             
C 26.84  4.65 23.96                                                             
C 26.84  4.65 37.65                                                             
C 26.84  4.65 51.34                                                             
C 26.84  4.65 65.03                                                             
C 30.86  2.32 10.27                                                             
C 30.86  2.32 23.96                                                             
C 30.86  2.32 37.65                                                             
C 30.86  2.32 51.34                                                             
C 30.86  2.32 65.03                                                             
C 14.76 16.27 10.27                                                             
C 14.76 16.27 23.96                                                             
C 14.76 16.27 37.65                                                             
C 14.76 16.27 51.34                                                             
C 14.76 16.27 65.03                                                             
C 18.79 13.95 10.27                                                             
C 18.79 13.95 23.96                                                             
C 18.79 13.95 37.65                                                             
C 18.79 13.95 51.34                                                             
C 18.79 13.95 65.03                                                             
C 22.81 11.62 10.27                                                             
C 22.81 11.62 23.96                                                             
C 22.81 11.62 37.65                                                             
C 22.81 11.62 51.34                                                             
C 22.81 11.62 65.03                                                             
C 26.84  9.30 10.27                                                             
C 26.84  9.30 23.96                                                             
C 26.84  9.30 37.65                                                             
C 26.84  9.30 51.34                                                             
C 26.84  9.30 65.03                                                             
C 30.86  6.97 10.27                                                             
C 30.86  6.97 23.96                                                             
C 30.86  6.97 37.65                                                             
C 30.86  6.97 51.34                                                             
C 30.86  6.97 65.03                                                             
C 22.81 16.27 10.27                                                             
C 22.81 16.27 23.96                                                             
C 22.81 16.27 37.65                                                             
C 22.81 16.27 51.34                                                             
C 22.81 16.27 65.03                                                             
C 26.84 13.95 10.27                                                             
C 26.84 13.95 23.96                                                             
C 26.84 13.95 37.65                                                             
C 26.84 13.95 51.34                                                             
C 26.84 13.95 65.03                                                             
C 30.86 11.62 10.27                                                             
C 30.86 11.62 23.96                                                             
C 30.86 11.62 37.65                                                             
C 30.86 11.62 51.34                                                             
C 30.86 11.62 65.03                                                             
C 30.86 16.27 10.27                                                             
C 30.86 16.27 23.96                                                             
C 30.86 16.27 37.65                                                             
C 30.86 16.27 51.34                                                             
C 30.86 16.27 65.03                                                             
%ENDBLOCK POSITIONS_ABS                                                         

--------------------------------------------------------------------------------
-------------------------------- END INPUT FILE --------------------------------
--------------------------------------------------------------------------------


 
<<<<<<<<<<<<<<<<<<<<<<<<<<<<<<<<< Full system >>>>>>>>>>>>>>>>>>>>>>>>>>>>>>>>>>
<<<<<<<<<<<<<<<<<<<<<<<<<<< PAW Dataset information >>>>>>>>>>>>>>>>>>>>>>>>>>>
File: ~/pp/paw/c_pbe_abinit.paw; rc = 1.25 bohr; shape type =  3; rshape = 1.25 bohr;
  Atomic number:  6;  ionic charge:  4.000000
    Partial Wave 1: l = 0
    Partial Wave 2: l = 0
    Partial Wave 3: l = 1
    Partial Wave 4: l = 1
  Core charge supplied for Nonlinear Core Corrections
<<<<<<<<<<<<<<<<<<<<<<<<<<<<<<<<<<<<<<< >>>>>>>>>>>>>>>>>>>>>>>>>>>>>>>>>>>>>>>

-------------------------- Atom counting information ---------------------------
Symbol    Natoms    Nngwfs    Nprojs
  C        640      2560      5120
.......   ......    ......    ......
Totals:    640      2560      5120
--------------------------------------------------------------------------------

=============================== PSINC grid sizes ===============================
                      Simulation cell:   63 x  35 x 135
                              FFT-box:   63 x  35 x 117
                                  PPD:    7 x   5 x   1
Grid space d1=  0.511269841270a0 (KE cutoff=  29.06054Eh = 790.77748eV)
Grid space d2=  0.531142857143a0 (KE cutoff=  26.92659Eh = 732.70972eV)
Grid space d3=  0.507037037037a0 (KE cutoff=  29.54776Eh = 804.03559eV)
================================================================================
  
WARNING in cell_grid_distribute:
Average of less than one 23-slab per node, so workload cannot be
equally balanced between nodes.

********************* Fourier parallelisation information **********************
       Coarse grid (whole simulation cell) dimensions:     63    35   135
          Real-space ('12') slabs/node (min max mean):      3     4     3
         Recip-space ('23') slabs/node (min max mean):      0     1     0
********************************************************************************

********************* Fourier parallelisation information **********************
       Double grid (whole simulation cell) dimensions:    126    70   270
          Real-space ('12') slabs/node (min max mean):      6     7     6
         Recip-space ('23') slabs/node (min max mean):      1     2     1
********************************************************************************

Atom SCF Calculation for C  : Z (AE atom) =   6 : Z (PS atom) =   4
Config String: 2s2 2p2
Orbitals (num,occ):  2     2.00 2.00
Orbitals   (num,l):  2        0    1
Real-space Grid (nr,dr,rmax): 1293    0.0069659443    9.0000000000
Spherical Bessel Basis (nsws,lmax,cutoff):   37    2  161.4736382572
Confining potential (l,width,scale):  0    3.0000000000  100.0000000000
Confining potential (l,width,scale):  1    3.0000000000  100.0000000000
  1         -5.4691149987   -1.3647045835    4.5135257941   -1.6713568800
  2         -5.5214542834   -1.4154291535    4.4635199061   -1.6585170582
  3         -5.5221055910   -1.4439161209    4.4342087028   -1.6520281659
  4         -5.5287901521   -1.4522301802    4.4259176063   -1.6507873939
  5         -5.5308251003   -1.4557840400    4.4224142384   -1.6502632738
  6         -5.5317252094   -1.4571386008    4.4211068249   -1.6500892907
  7         -5.5320765973   -1.4576738924    4.4205997642   -1.6500256779
  8         -5.5322192721   -1.4578833190    4.4204056023   -1.6500032912
  9         -5.5322765240   -1.4579657561    4.4203308649   -1.6499954152
 10         -5.5322995843   -1.4579982639    4.4203020904   -1.6499927055
 11         -5.5323088576   -1.4580111317    4.4202909828   -1.6499917962
 12         -5.5323125859   -1.4580162439    4.4202866844   -1.6499915030
 13         -5.5323140836   -1.4580182832    4.4202850159   -1.6499914143
 14         -5.5323146847   -1.4580191002    4.4202843659   -1.6499913905
 15         -5.5323149258   -1.4580194290    4.4202841117   -1.6499913858
 16         -5.5323150224   -1.4580195619    4.4202840119   -1.6499913859
Atom SCF converged after  16 iterations to a total energy of     -5.53231502

Determining parallel strategy ...
... using space-filling curve
... NGWF load balancing: max     64;  min     64;  average     64
... Projector load balancing: max    128;  min    128;  average    128
... done
Calculating Ewald energy ...
              Ewald: real-space energy =    9482.860412
        Ewald: reciprocal-space energy =       0.232615
         Ewald: (sum_charge)**2 Energy =   11028.304647
         Ewald: (sum_charge**2) Energy =     871.864035
                          Ewald Energy =   -2417.075656
Basis initialisation ...... NGWF spheres initialised
... Projector spheres initialised
... NGWF tight boxes initialised
... Projector tight boxes initialised
... Tight-boxes gathered
... NGWF basis size (local,global):     692564  27894720
... PAW projector initialisation
... done

============================= Charge Augmentation ==============================
                           Aug box size:   11 x  11 x  11
================================================================================

========================== Sparse matrix information ===========================
                        Overlap matrix filling:  40.94%
                        Density kernel filling: 100.00%
              NGWF-Proj overlap matrix filling:  12.19%
                    Aug Overlap matrix filling:  47.03%
                    Hamiltonian matrix filling:  47.03%
                  NGWF diagonal matrix filling:   0.16%
                             KS matrix filling: 100.00% 
                           KSKS matrix filling: 100.00% 
================================================================================

Sparse matrix initialisation ... done
NGWF initialisation ...... done
============ Calculation of NGWF S^-1 using Hotelling algorithm ================ 
         Iteration  |  Frobenius norm and Maximum abs value    (of I-S*S_n^-1)   
               1       0.49007839E+02     0.97532703E+00
               2       0.47744651E+02     0.95248489E+00
               3       0.45859748E+02     0.91141678E+00
               4       0.43429268E+02     0.84331949E+00
               5       0.40527105E+02     0.74244771E+00
               6       0.37164104E+02     0.67615242E+00
               7       0.33669578E+02     0.62878482E+00
               8       0.30311717E+02     0.58851910E+00
               9       0.26667332E+02     0.54303279E+00
              10       0.22029026E+02     0.47102660E+00
              11       0.16021933E+02     0.35777346E+00
              12       0.92369039E+01     0.21149277E+00
              13       0.35314155E+01     0.79033908E-01
              14       0.61611644E+00     0.12682659E-01
              15       0.22071309E-01     0.39905389E-03
              16       0.35757775E-04     0.49916514E-06
              17       0.14152241E-09     0.12124746E-11
              18       0.67458148E-13     0.36637360E-14
================================================================================
Calculating core density ...
================================= Core Density =================================
               Core den box size:   21 x  21 x  21
================================================================================
 ... done
Up spin density kernel initialisation ...... done

Writing density kernel to file "3.622312_GO_manual_4x64graphite.dkn" ... done

>>> Optimising kernel for current NGWFs:

--------------------------- Ensemble-DFT optimisation --------------------------
Running ScaLAPACK on   40 processor(s).

--------------------------------------------------------------------------------
  Iter                              Commutator    Free_energy(A=E-TS)     DeltaA
#    0                          0.000046448110   -3680.59844346565887  -3.68E+03

Step                       =       0.381966011250
Energy                     =   -3680.598409393454
Entropy (-TS)              =      -0.000034072333
Free energy (A=E-TS)       =   -3680.598443465659
Est. 0K Energy 0.5*(E+A)   =   -3680.598426429557
Residual Non-orthogonality =       0.000000000000
Residual N_electrons       =       0.000000000128

Spin          Integrated_Ne            Fermi_level     Delta_Fermi_level
   1      2559.999999999245         0.169716457820              1.70E-01

                           Spin 1          
     Orb      H-eigenvalues     Occupancies
       1 |    -0.5459159691    1.0000000000 | 
                          ------
    1276 |     0.1356289544    0.9999788528 | 
    1277 |     0.1362511852    0.9999742615 | 
    1278 |     0.1362511852    0.9999742615 | 
    1279 |     0.1364588072    0.9999725176 | 
    1280 |     0.1370804019    0.9999665576 | 
                 - Gap at zero temperature -
    1281 |     0.2047843534    0.0000155169 | 
    1282 |     0.2047905025    0.0000154868 | 
    1283 |     0.2047905025    0.0000154868 | 
    1284 |     0.2050139037    0.0000144319 | 
    1285 |     0.2050179879    0.0000144133 | 
                          ------
    2560 |     0.9897671073    0.0000000000 | 

                       |  Abs_value |  Threshold | Converged
     Delta_Free_energy |   3.68E+03 |   1.00E-06 |        No
     Delta_Energy      |   3.68E+03 |   1.00E-04 |        No
     Delta_Entropy     |   3.41E-05 |   1.00E-04 |       Yes
     Commutator        |   4.64E-05 |   1.00E-05 |        No
     Delta_Fermi_level |   1.70E-01 |   1.00E-03 |        No

  Line search of the free energy minimum:
  Step_type        Step             Free_energy   Predicted_free_energy
.   Initial    0.000000    -3680.59844346565887
.    Trial1    0.381966    -3680.60075810459784
.    Trial2    0.618034    -3680.60135537179758
. Quadratic    0.721499    -3680.60141836729144    -3680.60141651039930

--------------------------------------------------------------------------------
  Iter                              Commutator    Free_energy(A=E-TS)     DeltaA
#    1                          0.000024054730   -3680.60141836729144  -2.97E-03

Step                       =       0.721498792003
Energy                     =   -3680.601385946205
Entropy (-TS)              =      -0.000032421464
Free energy (A=E-TS)       =   -3680.601418367291
Est. 0K Energy 0.5*(E+A)   =   -3680.601402156748
Residual Non-orthogonality =       0.000000000000
Residual N_electrons       =       0.000000000377

Spin          Integrated_Ne            Fermi_level     Delta_Fermi_level
   1      2559.999999997791         0.170624139850              9.08E-04

                           Spin 1          
     Orb      H-eigenvalues     Occupancies
       1 |    -0.5481343264    1.0000000000 | 
                          ------
    1276 |     0.1364613048    0.9999793499 | 
    1277 |     0.1368915406    0.9999763450 | 
    1278 |     0.1368915406    0.9999763450 | 
    1279 |     0.1372894602    0.9999731780 | 
    1280 |     0.1377188176    0.9999692835 | 
                 - Gap at zero temperature -
    1281 |     0.2057880609    0.0000150534 | 
    1282 |     0.2057938807    0.0000150258 | 
    1283 |     0.2057938807    0.0000150258 | 
    1284 |     0.2060289283    0.0000139510 | 
    1285 |     0.2060289283    0.0000139510 | 
                          ------
    2560 |     0.9896912404    0.0000000000 | 

                       |  Abs_value |  Threshold | Converged
     Delta_Free_energy |   2.97E-03 |   1.00E-06 |        No
     Delta_Energy      |   2.98E-03 |   1.00E-04 |        No
     Delta_Entropy     |   1.65E-06 |   1.00E-04 |       Yes
     Commutator        |   2.41E-05 |   1.00E-05 |        No
     Delta_Fermi_level |   9.08E-04 |   1.00E-03 |       Yes

  Line search of the free energy minimum:
  Step_type        Step             Free_energy   Predicted_free_energy
.   Initial    0.000000    -3680.60141836729144
.    Trial1    0.721499    -3680.59958622751856
.    Trial2    0.275588    -3680.60193597368971
. Quadratic    0.232587    -3680.60195451660229    -3680.60195429212308

--------------------------------------------------------------------------------
  Iter                              Commutator    Free_energy(A=E-TS)     DeltaA
#    2                          0.000010931478   -3680.60195451660229  -5.36E-04

Step                       =       0.232587087814
Energy                     =   -3680.601922261460
Entropy (-TS)              =      -0.000032255228
Free energy (A=E-TS)       =   -3680.601954516602
Est. 0K Energy 0.5*(E+A)   =   -3680.601938389031
Residual Non-orthogonality =       0.000000000000
Residual N_electrons       =       0.000000000086

Spin          Integrated_Ne            Fermi_level     Delta_Fermi_level
   1      2559.999999999498         0.170715756111              9.16E-05

                           Spin 1          
     Orb      H-eigenvalues     Occupancies
       1 |    -0.5483287521    1.0000000000 | 
                          ------
    1276 |     0.1364936294    0.9999797329 | 
    1277 |     0.1369981491    0.9999762328 | 
    1278 |     0.1369981491    0.9999762328 | 
    1279 |     0.1373203136    0.9999736877 | 
    1280 |     0.1378240174    0.9999691515 | 
                 - Gap at zero temperature -
    1281 |     0.2059243571    0.0000148426 | 
    1282 |     0.2059316282    0.0000148085 | 
    1283 |     0.2059316282    0.0000148085 | 
    1284 |     0.2061706349    0.0000137320 | 
    1285 |     0.2061706349    0.0000137320 | 
                          ------
    2560 |     0.9896837761    0.0000000000 | 

                       |  Abs_value |  Threshold | Converged
     Delta_Free_energy |   5.36E-04 |   1.00E-06 |        No
     Delta_Energy      |   5.36E-04 |   1.00E-04 |        No
     Delta_Entropy     |   1.66E-07 |   1.00E-04 |       Yes
     Commutator        |   1.09E-05 |   1.00E-05 |        No
     Delta_Fermi_level |   9.16E-05 |   1.00E-03 |       Yes

  Line search of the free energy minimum:
  Step_type        Step             Free_energy   Predicted_free_energy
.   Initial    0.000000    -3680.60195451660229
.    Trial1    0.232587    -3680.60204948646924
.    Trial2    0.525713    -3680.60205814817436
. Quadratic    0.399656    -3680.60206957713808    -3680.60206959687639

--------------------------------------------------------------------------------
  Iter                              Commutator    Free_energy(A=E-TS)     DeltaA
#    3                          0.000007186742   -3680.60206957713808  -1.15E-04

Step                       =       0.399656450118
Energy                     =   -3680.602037538075
Entropy (-TS)              =      -0.000032038713
Free energy (A=E-TS)       =   -3680.602069577138
Est. 0K Energy 0.5*(E+A)   =   -3680.602053557606
Residual Non-orthogonality =       0.000000000000
Residual N_electrons       =      -0.000000000351

Spin          Integrated_Ne            Fermi_level     Delta_Fermi_level
   1      2560.000000002053         0.170835919708              1.20E-04

                           Spin 1          
     Orb      H-eigenvalues     Occupancies
       1 |    -0.5485739768    1.0000000000 | 
                          ------
    1276 |     0.1365669690    0.9999800304 | 
    1277 |     0.1371121813    0.9999762787 | 
    1278 |     0.1371121813    0.9999762787 | 
    1279 |     0.1373925583    0.9999740828 | 
    1280 |     0.1379369958    0.9999692214 | 
                 - Gap at zero temperature -
    1281 |     0.2060823725    0.0000146662 | 
    1282 |     0.2060906357    0.0000146280 | 
    1283 |     0.2060906357    0.0000146280 | 
    1284 |     0.2063321861    0.0000135537 | 
    1285 |     0.2063321861    0.0000135537 | 
                          ------
    2560 |     0.9897027017    0.0000000000 | 

                       |  Abs_value |  Threshold | Converged
     Delta_Free_energy |   1.15E-04 |   1.00E-06 |        No
     Delta_Energy      |   1.15E-04 |   1.00E-04 |        No
     Delta_Entropy     |   2.17E-07 |   1.00E-04 |       Yes
     Commutator        |   7.19E-06 |   1.00E-05 |       Yes
     Delta_Fermi_level |   1.20E-04 |   1.00E-03 |       Yes

  Line search of the free energy minimum:
  Step_type        Step             Free_energy   Predicted_free_energy
.   Initial    0.000000    -3680.60206957713808
.    Trial1    0.399656    -3680.60209983251298
.    Trial2    0.628967    -3680.60202257403625
. Quadratic    0.257527    -3680.60211310353770    -3680.60211308482803

--------------------------------------------------------------------------------
  Iter                              Commutator    Free_energy(A=E-TS)     DeltaA
#    4                          0.000004612976   -3680.60211310353770  -4.35E-05

Step                       =       0.257526671411
Energy                     =   -3680.602081148107
Entropy (-TS)              =      -0.000031955289
Free energy (A=E-TS)       =   -3680.602113103538
Est. 0K Energy 0.5*(E+A)   =   -3680.602097125822
Residual Non-orthogonality =       0.000000000000
Residual N_electrons       =      -0.000000000142

Spin          Integrated_Ne            Fermi_level     Delta_Fermi_level
   1      2560.000000000829         0.170883555229              4.76E-05

                           Spin 1          
[...]
 C   160 -- C   385       -0.09      5.37000
 C   159 -- C   384       -0.09      5.37000
 C   158 -- C   383       -0.09      5.37000
 C   157 -- C   382       -0.09      5.37000
 C   156 -- C   381       -0.09      5.37000
 C   155 -- C   355       -0.09      5.37000
 C   154 -- C   354       -0.09      5.37000
 C   153 -- C   353       -0.09      5.37000
 C   152 -- C   352       -0.09      5.37000
 C   151 -- C   351       -0.09      5.37000
 C   140 -- C   335       -0.09      5.37000
 C   139 -- C   334       -0.09      5.37000
 C   138 -- C   333       -0.09      5.37000
 C   137 -- C   332       -0.09      5.37000
 C   136 -- C   331       -0.09      5.37000
 C   115 -- C   325       -0.09      5.37000
 C   114 -- C   324       -0.09      5.37000
 C   113 -- C   323       -0.09      5.37000
 C   112 -- C   322       -0.09      5.37000
 C   111 -- C   321       -0.09      5.37000
 C   219 -- C   569       -0.09      5.37202
 C   218 -- C   568       -0.09      5.37202
 C   217 -- C   567       -0.09      5.37202
 C   216 -- C   566       -0.09      5.37202
 C   250 -- C   540       -0.09      5.37202
 C   249 -- C   539       -0.09      5.37202
 C   248 -- C   538       -0.09      5.37202
 C   247 -- C   537       -0.09      5.37202
 C   246 -- C   536       -0.09      5.37202
 C   220 -- C   570       -0.09      5.37202
 C   285 -- C   580       -0.09      5.37202
 C   284 -- C   579       -0.09      5.37202
 C   283 -- C   578       -0.09      5.37202
 C   282 -- C   577       -0.09      5.37202
 C   281 -- C   576       -0.09      5.37202
 C   260 -- C   605       -0.09      5.37202
 C   259 -- C   604       -0.09      5.37202
 C   258 -- C   603       -0.09      5.37202
 C   257 -- C   602       -0.09      5.37202
 C   256 -- C   601       -0.09      5.37202
 C   220 -- C   515       -0.09      5.37202
 C   219 -- C   514       -0.09      5.37202
 C   218 -- C   513       -0.09      5.37202
 C   217 -- C   512       -0.09      5.37202
 C   216 -- C   511       -0.09      5.37202
 C   195 -- C   540       -0.09      5.37202
 C   195 -- C   500       -0.09      5.37202
 C   194 -- C   539       -0.09      5.37202
 C   194 -- C   499       -0.09      5.37202
 C   193 -- C   538       -0.09      5.37202
 C   193 -- C   498       -0.09      5.37202
 C   192 -- C   537       -0.09      5.37202
 C   192 -- C   497       -0.09      5.37202
 C   191 -- C   536       -0.09      5.37202
 C   191 -- C   496       -0.09      5.37202
 C   180 -- C   515       -0.09      5.37202
 C   179 -- C   514       -0.09      5.37202
 C   178 -- C   513       -0.09      5.37202
 C   177 -- C   512       -0.09      5.37202
 C   176 -- C   511       -0.09      5.37202
 C    11 -- C   331       -0.09      5.37202
 C   205 -- C   550       -0.09      5.37202
 C   204 -- C   549       -0.09      5.37202
 C   203 -- C   548       -0.09      5.37202
 C   202 -- C   547       -0.09      5.37202
 C   201 -- C   546       -0.09      5.37202
 C    95 -- C   425       -0.09      5.37202
 C    95 -- C   365       -0.09      5.37202
 C    94 -- C   424       -0.09      5.37202
 C    94 -- C   364       -0.09      5.37202
 C    93 -- C   423       -0.09      5.37202
 C    93 -- C   363       -0.09      5.37202
 C    92 -- C   422       -0.09      5.37202
 C    92 -- C   362       -0.09      5.37202
 C    91 -- C   421       -0.09      5.37202
 C    91 -- C   361       -0.09      5.37202
 C    40 -- C   365       -0.09      5.37202
 C    39 -- C   364       -0.09      5.37202
 C    38 -- C   363       -0.09      5.37202
 C    37 -- C   362       -0.09      5.37202
 C    36 -- C   361       -0.09      5.37202
 C    15 -- C   335       -0.09      5.37202
 C    65 -- C   395       -0.09      5.37202
 C    65 -- C   345       -0.09      5.37202
 C    64 -- C   394       -0.09      5.37202
 C    64 -- C   344       -0.09      5.37202
 C    63 -- C   393       -0.09      5.37202
 C    30 -- C   355       -0.09      5.37202
 C    63 -- C   343       -0.09      5.37202
 C    62 -- C   392       -0.09      5.37202
 C    30 -- C   325       -0.09      5.37202
 C    14 -- C   334       -0.09      5.37202
 C    62 -- C   342       -0.09      5.37202
 C    61 -- C   391       -0.09      5.37202
 C    29 -- C   354       -0.09      5.37202
 C    61 -- C   341       -0.09      5.37202
 C    29 -- C   324       -0.09      5.37202
 C   260 -- C   550       -0.09      5.37202
 C   259 -- C   549       -0.09      5.37202
 C    28 -- C   353       -0.09      5.37202
 C   258 -- C   548       -0.09      5.37202
 C   257 -- C   547       -0.09      5.37202
 C   256 -- C   546       -0.09      5.37202
 C    28 -- C   323       -0.09      5.37202
 C    27 -- C   352       -0.09      5.37202
 C    13 -- C   333       -0.09      5.37202
 C    27 -- C   322       -0.09      5.37202
 C   120 -- C   395       -0.09      5.37202
 C    26 -- C   351       -0.09      5.37202
 C   119 -- C   394       -0.09      5.37202
 C   118 -- C   393       -0.09      5.37202
 C    55 -- C   335       -0.09      5.37202
 C   117 -- C   392       -0.09      5.37202
 C    26 -- C   321       -0.09      5.37202
 C   116 -- C   391       -0.09      5.37202
 C    54 -- C   334       -0.09      5.37202
 C    12 -- C   332       -0.09      5.37202
 C    53 -- C   333       -0.09      5.37202
 C   230 -- C   580       -0.09      5.37202
 C   230 -- C   525       -0.09      5.37202
 C   229 -- C   579       -0.09      5.37202
 C   229 -- C   524       -0.09      5.37202
 C   228 -- C   578       -0.09      5.37202
 C    52 -- C   332       -0.09      5.37202
 C   228 -- C   523       -0.09      5.37202
 C   227 -- C   577       -0.09      5.37202
 C   227 -- C   522       -0.09      5.37202
 C   226 -- C   576       -0.09      5.37202
 C   226 -- C   521       -0.09      5.37202
 C    51 -- C   331       -0.09      5.37202
 C    23 -- C   478       -0.09      5.37202
 C    49 -- C   469       -0.09      5.37202
 C    48 -- C   468       -0.09      5.37202
 C    47 -- C   467       -0.09      5.37202
 C    22 -- C   477       -0.09      5.37202
 C    46 -- C   466       -0.09      5.37202
 C    21 -- C   476       -0.09      5.37202
 C    85 -- C   355       -0.09      5.37202
 C    84 -- C   354       -0.09      5.37202
 C    83 -- C   353       -0.09      5.37202
 C    82 -- C   352       -0.09      5.37202
 C    81 -- C   351       -0.09      5.37202
 C    55 -- C   385       -0.09      5.37202
 C    54 -- C   384       -0.09      5.37202
 C    25 -- C   480       -0.09      5.37202
 C    53 -- C   383       -0.09      5.37202
 C    52 -- C   382       -0.09      5.37202
 C    51 -- C   381       -0.09      5.37202
 C    24 -- C   479       -0.09      5.37202
 C    50 -- C   470       -0.09      5.37202
 C    24 -- C   449       -0.09      5.37202
 C     6 -- C   416       -0.09      5.37202
 C    23 -- C   448       -0.09      5.37202
 C    22 -- C   447       -0.09      5.37202
 C    10 -- C   470       -0.09      5.37202
 C     5 -- C   450       -0.09      5.37202
 C    21 -- C   446       -0.09      5.37202
 C    10 -- C   420       -0.09      5.37202
 C     9 -- C   469       -0.09      5.37202
 C     9 -- C   419       -0.09      5.37202
 C     8 -- C   468       -0.09      5.37202
 C     4 -- C   449       -0.09      5.37202
 C   150 -- C   440       -0.09      5.37202
 C   149 -- C   439       -0.09      5.37202
 C   148 -- C   438       -0.09      5.37202
 C   147 -- C   437       -0.09      5.37202
 C     8 -- C   418       -0.09      5.37202
 C   146 -- C   436       -0.09      5.37202
 C     2 -- C   447       -0.09      5.37202
 C   135 -- C   460       -0.09      5.37202
 C     7 -- C   467       -0.09      5.37202
 C   134 -- C   459       -0.09      5.37202
 C   133 -- C   458       -0.09      5.37202
 C   132 -- C   457       -0.09      5.37202
 C   131 -- C   456       -0.09      5.37202
 C     7 -- C   417       -0.09      5.37202
 C     1 -- C   446       -0.09      5.37202
 C     6 -- C   466       -0.09      5.37202
 C    25 -- C   450       -0.09      5.37202
 C     3 -- C   448       -0.09      5.37202
 C   106 -- C   436       -0.09      5.37202
 C   106 -- C   376       -0.09      5.37202
 C    80 -- C   410       -0.09      5.37202
 C    79 -- C   409       -0.09      5.37202
 C    78 -- C   408       -0.09      5.37202
 C    77 -- C   407       -0.09      5.37202
 C    76 -- C   406       -0.09      5.37202
 C   135 -- C   410       -0.09      5.37202
 C   134 -- C   409       -0.09      5.37202
 C   133 -- C   408       -0.09      5.37202
 C   132 -- C   407       -0.09      5.37202
 C   131 -- C   406       -0.09      5.37202
 C   110 -- C   440       -0.09      5.37202
 C   110 -- C   380       -0.09      5.37202
 C   109 -- C   439       -0.09      5.37202
 C   109 -- C   379       -0.09      5.37202
 C   108 -- C   438       -0.09      5.37202
 C   108 -- C   378       -0.09      5.37202
 C   107 -- C   437       -0.09      5.37202
 C   107 -- C   377       -0.09      5.37202
 C   215 -- C   635       -0.09      5.38000
 C   214 -- C   634       -0.09      5.38000
 C   213 -- C   633       -0.09      5.38000
 C   212 -- C   632       -0.09      5.38000
 C   211 -- C   631       -0.09      5.38000
 C   190 -- C   620       -0.09      5.38000
 C   189 -- C   619       -0.09      5.38000
 C   188 -- C   618       -0.09      5.38000
 C   187 -- C   617       -0.09      5.38000
 C   186 -- C   616       -0.09      5.38000
 C   175 -- C   595       -0.09      5.38000
 C   174 -- C   594       -0.09      5.38000
 C   173 -- C   593       -0.09      5.38000
 C   172 -- C   592       -0.09      5.38000
 C   171 -- C   591       -0.09      5.38000
 C   245 -- C   640       -0.09      5.38000
 C   244 -- C   639       -0.09      5.38000
 C   243 -- C   638       -0.09      5.38000
 C   242 -- C   637       -0.09      5.38000
 C   241 -- C   636       -0.09      5.38000
==================================================


=================== Orbital energy and occupancy information ===================

      Total number of orbitals:    2560
        Occupancy sum (kernel):    1280.000000000
   Occupancy sum (eigenvalues):    1280.000000000
                 HOMO-LUMO gap:       0.065167185 Eh
                 Mid-gap level:       0.227907105 Eh

                        Orbital | Energy (Eh) | Occupancy
                            1    -0.491099212   1.0000000
                        .......   ...........   .........
                         1271     0.190544386   0.9999884
                         1272     0.190544386   0.9999884
                         1273     0.191013287   0.9999865
                         1274     0.191013287   0.9999865
                         1275     0.193853600   0.9999670
                         1276     0.193853600   0.9999670
                         1277     0.194317789   0.9999618
                         1278     0.194317789   0.9999618
                         1279     0.194863860   0.9999546
                         1280     0.195323512   0.9999475
                        ....... -- gap at 0K -- .........
                         1281     0.260490697   0.0000219
                         1282     0.260490697   0.0000219
                         1283     0.260748032   0.0000202
                         1284     0.260748032   0.0000202
                         1285     0.260926700   0.0000191
                         1286     0.260926700   0.0000191
                         1287     0.261195614   0.0000176
                         1288     0.261195614   0.0000176
                         1289     0.261256504   0.0000173
                         1290     0.261358550   0.0000167
                        .......   ...........   .........
                         2560     1.106843365   0.0000000

================================================================================

===================== Writing canonical molecular orbitals =====================
| Orbital  Energy (eV)  Norm     |
| HOMO      5.31502321  1.000000 | Writing "3.622312_GO_manual_4x64graphite_HOMO.cube" ... done
Writing "3.622312_GO_manual_4x64graphite_HOMO.dx" ... done
| LUMO      7.08831255  1.000000 | Writing "3.622312_GO_manual_4x64graphite_LUMO.cube" ... done
Writing "3.622312_GO_manual_4x64graphite_LUMO.dx" ... done
================================================================================
 
===================== Density of States (DOS) calculation ======================
Writing "3.622312_GO_manual_4x64graphite_DOS.txt" ...  done
================================================================================
 
Writing bands to file "3.622312_GO_manual_4x64graphite.val_bands" ... done
 
================ Projected Density of States (pDOS) calculation ================
 
Constructing AM resolved functions  ...... done
Writing NGWF plot files in formats: CUBE DX ...  done
 
Performing overlap integrals ...  done
 
Computing pDOS weights ...  done
 
All bands spilling parameter =   3.27 %
Occupancy-weighted spilling parameter =   0.95 %
 
 => Outputting data for OptaDOS <=
 
Writing pDOS weights to file "3.622312_GO_manual_4x64graphite.val_pdos_bin" ... done
 
Writing band gradients to file "3.622312_GO_manual_4x64graphite.val_dome_bin" ... done
 
Writing Castep output cell file to "3.622312_GO_manual_4x64graphite-out.cell" ... done
 
 => Computing Gaussian smeared pDOS <= 
Writing "3.622312_GO_manual_4x64graphite_PDOS.txt" ...  done
 
 => Computing Occupancy-weighted Gaussian smeared pDOS <= 
Writing "3.622312_GO_manual_4x64graphite_occ_PDOS.txt" ...  done
  => Band centres: 
 S band centre of group 1:  -14.705206 eV
 P band centre of group 1:   -7.594553 eV
  Band centres done. <=
  => Integrated number of electrons in each AM band: 
 S num electrons of group 1:  574.428393
 P num electrons of group 1: 1961.167661
  Integrated number of electrons done. <=
================================================================================

------------------------------ TIMING INFORMATION ------------------------------
AVERAGE TIME:    3326.712s on     40 node(s)                                    
TOTAL TIME:      3326.712s on     40 node(s)                                    
================= AVERAGE TIMINGS FROM ALL NODES (CUMULATIVE) ==================
|| TAG                                    #calls    cpu time   %total  Gflops ||
|| work_imbalance                       :     1        0.00s   0.000%  ------ ||
|| paw_tcore_hartree_on_grid            :     1        0.00s   0.000%  ------ ||
|| paw_tcore_density                    :     1        0.01s   0.000%  ------ ||
|| paw_sphere_density_on_grid           :     1        0.01s   0.000%  ------ ||
|| sparse_set_to_garbage                :   147        0.02s   0.001%  ------ ||
|| paw_dij_hartree                      :   302        0.04s   0.001%  ------ ||
|| pseudo_make_structure_factor         :     1        0.06s   0.002%  ------ ||
|| basis_extract_function_from_box      :  1664        0.07s   0.002%  ------ ||
|| paw_species_calc_proj_prec_mat       :     1        0.12s   0.004%  ------ ||
|| paw_dataset_init                     :     1        0.15s   0.005%  ------ ||
|| density_init_guess_real              :     1        0.19s   0.006%  ------ ||
|| ngwfs_initialise_from_radial         :     2        0.67s   0.020%  ------ ||
|| sparse_init                          :     1        0.93s   0.028%  ------ ||
|| restart_kernel_write                 :    14        0.97s   0.029%  ------ ||
|| hartree_on_grid                      :   226        1.21s   0.036%  ------ ||
|| dense_normal_eigensolve              :     1        1.26s   0.038%  ------ ||
|| projectors_init_fftbox_recip         :   131        2.53s   0.076%  ------ ||
|| ewald_calculate_energy               :     1        3.18s   0.095%  ------ ||
|| fourier_apply_box_pair               :  2464        4.08s   0.123% 560.585 ||
|| basis_copy_function_to_box           : 21568        4.66s   0.140%  ------ ||
|| augmentation_screen_dij              :   231        5.06s   0.152%  ------ ||
|| sw_init                              :     1        6.73s   0.202%  ------ ||
|| sparse_embed_hotelling_invert_embed  :    25        7.12s   0.214%  ------ ||
|| ngwf_gradient_coeffs                 :    13        9.40s   0.283%  ------ ||
|| sparse_trace                         :  2732       12.38s   0.372%  ------ ||
|| fourier_apply_cell_backward          :  6977       13.71s   0.412%  64.882 ||
|| fourier_apply_cell_forward           :  6526       14.53s   0.437%  57.227 ||
|| cell_grid_extract_box_real           :  9148       15.32s   0.461%  ------ ||
|| cell_grid_deposit_box_real           : 29104       20.32s   0.611%  ------ ||
|| paw_dij_xc                           :   302       24.19s   0.727%  ------ ||
|| aug_nonlocal_mat                     :   289       33.37s   1.003%  ------ ||
|| augmentation_density_on_grid         :   226       40.66s   1.222%  ------ ||
|| density_fftbox_deposit_to_cell       : 14464       41.34s   1.243%  ------ ||
|| hamiltonian_energy_components        :     3       46.44s   1.396%  ------ ||
|| function_ops_brappd_ketppd           :    52       49.81s   1.497%  ------ ||
|| eigenstates_pdos                     :     1       52.96s   1.592%  ------ ||
|| eigenstates_calculate                :     1       57.16s   1.718%  ------ ||
|| projectors_func_ovlp_box             :    26       58.71s   1.765%  ------ ||
|| nlxc_vdw_energy                      :   450       59.22s   1.780%  ------ ||
|| xc_energy_potential                  :   225       67.85s   2.039%  ------ ||
|| integrals_kinetic                    :    25       81.01s   2.435%  ------ ||
|| dense_eigensolve                     :   197       96.19s   2.891%  ------ ||
|| properties_calculate                 :     1      103.09s   3.099%  ------ ||
|| sparse_product                       :  2774      111.59s   3.354%  ------ ||
|| potential_apply_to_ngwf_batch        :   288      113.27s   3.405%  ------ ||
|| restart_ngwfs_tightbox_output        :    12      150.78s   4.533%  ------ ||
|| basis_dot_function_with_box          : 6.707M     185.93s   5.589%  ------ ||
|| fourier_apply_box                    : 67936      211.40s   6.355% 976.895 ||
|| edft_diag_ngwf_ham                   :   196      216.53s   6.509%  ------ ||
|| projectors_gradient_batch            :    52      237.74s   7.146%  ------ ||
|| integrals_locpot_mat_els_batch       :   288      239.81s   7.209%  ------ ||
|| density_fftbox_interpolate_multiply  : 14464      280.20s   8.423%  ------ ||
|| projectors_grad_precond_batch        :    52      326.39s   9.811%  ------ ||
|| integrals_locpot_dbl_grid            :    72      354.39s  10.653%  ------ ||
|| density_batch_interp_deposit         :   904      358.50s  10.776%  ------ ||
|| edft_apply_smearing_operator         :   196      422.34s  12.696%  ------ ||
|| basis_add_function_to_box            : 18.65M     498.80s  14.994%  ------ ||
|| ngwf_gradient_build_batch            :    52      603.56s  18.143%  ------ ||
|| density_batch_row_sums               :   904      678.14s  20.385%  ------ ||
|| ngwf_gradient_batch                  :    52      796.71s  23.949%  ------ ||
|| ngwf_gradient_lnv                    :    13      821.40s  24.691%  ------ ||
|| density_on_dbl_grid                  :   226     1049.46s  31.547%  ------ ||
|| hamiltonian_lhxc_calculate           :   221     1135.37s  34.129%  ------ ||
|| edft_calculate                       :    13     1898.51s  57.069%  ------ ||
|| ngwf_cg_optimise                     :     1     3197.68s  96.121%  ------ ||
|| total_time                           :     1     3326.71s 100.000%  ------ ||
================================================================================
Overhead of generating timer report: 
- 0 ms averaging over threads,
- 5 ms ensuring consistency across MPI ranks,
- 0 ms printing in order.

Job completed: 26-02-2020 06:38 (-0000)

