 +---------------------------------------------------------------+
 |                                                               |
 |        ####### #     # ####### ####### ####### ######         |
 |        #     # ##    # #          #    #       #     #        |
 |        #     # # #   # #          #    #       #     #        |
 |        #     # #  #  # #####      #    #####   ######         |
 |        #     # #   # # #          #    #       #              |
 |        #     # #    ## #          #    #       #              |
 |        ####### #     # #######    #    ####### #              |
 |                                                               |
 |        Linear-Scaling Ab Initio Total Energy Program          |
 |                                                               |
 |          Release for academic collaborators of ODG            |
 |                                             Version 5.3.2.12  |
 |                                                               |
 +---------------------------------------------------------------+
 |                                                               |
 |  Authors:                                                     |
 |  Jacek Dziedzic, Peter D. Haynes, Nicholas D. M. Hine,        |
 |  Arash. A. Mostofi, Mike C. Payne and Chris-Kriton Skylaris   |
 |                                                               |
 |  Contributors:                                                |
 |  J. Aarons, L. Andrinopoulos, P. W. Avraam, R. A. Bell,       |
 |  A. Bhandari, G. A. Bramley, R. J. Charlton, S. J. Clark,     |
 |  R. J. Clements, G. C. Constantinescu, F. Corsetti,           |
 |  N. Corsini, O. Dieguez, S. M. M. Dubois, K. K. B. Duff,      |
 |  J. M. Escartin, A. Greco, H. Helal, Q. O. Hill, L. P. Lee,   |
 |  J.-H. Li, E. B. Linscott, G. Moynihan, D. D. O`Regan,        |
 |  O. K. Okan, M. J. S. Phipps, C. J. Pickard,                  |
 |  J. C. A. Prentice, M. I. J. Probert, L. E. Ratcliff,         |
 |  M. Robinson, A. Ruiz Serrano, J. S. Spencer, E. W. Tait,     |
 |  G. Teobaldi, D. Turban, V. Vitale, K. A. Wilkinson,          |
 |  C. Weber, J. C. Womack, N. Yeung and T. J. Zuehlsdorff       |
 |                                                               |
 |                                   Copyright (c) 2004-2020     |
 |                                                               |
 |  Please cite:                                                 |
 |  "Introducing ONETEP: Linear-scaling density functional       |
 |   simulations on parallel computers".                         |
 |   C.-K. Skylaris, P. D. Haynes, A. A. Mostofi, M. C. Payne.   |
 |   J. Chem. Phys. 122 084119 (2005).                           |
 |                                                               |
 |          in all publications arising from your use of ONETEP. |
 |                                                               |
 +---------------------------------------------------------------+
 |                                                               |
 |   ONETEP is based on developments described in the following  |
 |   publications:                                               |
 |                                                               |
 |  "Nonorthogonal generalized Wannier function pseudopotential  |
 |   plane-wave method".                                         |
 |   C.-K. Skylaris, A. A. Mostofi, P. D. Haynes, O. Dieguez,    |
 |   M. C. Payne.                                                |
 |   Phys. Rev. B 66 035119 (2002).                              |
 |                                                               |
 |  "Preconditioned iterative minimization for linear-scaling    |
 |   electronic structure calculations".                         |
 |   A. A. Mostofi, P. D. Haynes, C.-K. Skylaris, M. C. Payne.   |
 |   J. Chem. Phys. 119(17), pp.8842-8848 (2003).                |
 |                                                               |
 |  "Total-energy calculations on a real space grid with         |
 |   localized functions and a plane-wave basis".                |
 |   A. A. Mostofi, C.-K. Skylaris, P. D. Haynes, M. C. Payne.   |
 |   Comput. Phys. Commun. 147, pp.788-802 (2002).               |
 |                                                               |
 |  "Accurate kinetic energy evaluation in electronic structure  |
 |   calculations with localized functions on real space grids"  |
 |   C.-K. Skylaris, A. A. Mostofi, P. D. Haynes, C. J. Pickard, |
 |   M. C. Payne.                                                |
 |   Comput. Phys. Commun. 140, pp.315-322 (2001).               |
 |                                                               |
 |  "Accurate ionic forces and geometry optimization in linear-  |
 |   scaling density-functional theory with local orbitals"      |
 |   N. D. M. Hine, M. Robinson, P. D. Haynes, C.-K. Skylaris,   |
 |   M. C. Payne, and A. A. Mostofi.                             |
 |   Phys. Rev. B 83 195102 (2011).                              |
 |                                                               |
 +---------------------------------------------------------------+

Job started: 29-02-2020 12:14 (-0000)
 
Reading parameters from file "3.756468_GO_manual_4x64graphite.dat" ...

WARNING: "cutoff_energy" not specified, but "psinc_spacing" specified.
         Using the latter to set the KE cutoff energy to  732.32021eV,
         thus *overriding* the default.

... done

If your calculation crashes here, before "Checking processes and threads..."
is displayed, then your stack size is insufficient.
If so, use "ulimit -s unlimited" at runtime.
You can disable this check with "check_stack_size F".

Checking processes and threads...
   Determining the default number of threads...
      No default threads set at compilation time: defaulting to 1.
      OpenMP library call suggests 4 threads.
      Hybrid MPI-OpenMP compilation detected.
      Number of MPI processes > 1.
      OMP_NUM_THREADS environment variable present and
      its value matches the one obtained from the OpenMP library call.
      Using this value as default.
      Default threads: 4
      Default applies to threads_max and threads_num_fftboxes.
      Settings in the input file override this default.
   ... done

   Running with 40 MPI processes.
   There are 10 MPI processes running on the same node as the root process.
   Each MPI process is using: 
               1 threads for simulation cell FFTs.
               1 threads for parallel FFT box operations.
               4 threads for loops over batched FFT box operations.
               4 threads in other parallel regions.
... done

Basic input checks...
Resetting ngwf_cg_rotate to TRUE for EDFT calculations
... done

Reading geometry and species blocks from file "3.756468_GO_manual_4x64graphite.dat" ...
    
  PSINC grid spacing along a1 set to   0.511215680000a0 from input file.
  PSINC grid spacing along a2 set to   0.531284090000a0 from input file.
  PSINC grid spacing along a3 set to   0.507050730000a0 from input file.
  Number of PPD points along a3 set to 1.  This is 
  the default value, it may have been provided also in the input file.
... done
 Writing xyz coordinates to file "3.756468_GO_manual_4x64graphite.xyz" ... done


--------------------------------------------------------------------------------
---------------------------------- INPUT FILE ----------------------------------
--------------------------------------------------------------------------------

task : singlepoint                                                              
do_properties : true                                                            
dx_format T                                                                     
edft T                                                                          
output_detail VERBOSE                                                           
write_xyz T                                                                     
xc_functional VDWDF2                                                            
PSINC_SPACING 0.51121568 0.53128409 0.50705073                                  
paw T                                                                           
pdos_max_l = 2                                                                  
dos_smear  0.1 eV                                                               
popn_calculate T                                                                
PDOS_PSEUDOATOMIC T                                                             
PDOS_REDUCE_SWS F                                                               
PDOS_CONSTRUCT_BASIS F                                                          
PDOS_LOWDIN T                                                                   
PDOS_ORTH_ATOM_BLOCKS F                                                         
PDOS_LCAO_OPTIMIZE F                                                            
pdos_optados_output T                                                           
homo_plot 0                                                                     
lumo_plot 0                                                                     
homo_dens_plot -1                                                               
lumo_dens_plot -1                                                               
%BLOCK SPECIES                                                                  
C C 6 4 9.0                                                                     
%ENDBLOCK SPECIES                                                               
%BLOCK SPECIES_POT                                                              
C "~/pp/paw/c_pbe_abinit.paw"                                                   
%ENDBLOCK SPECIES_POT                                                           
%BLOCK SPECIES_ATOMIC_SET                                                       
C "SOLVE conf=2s2 2p2"                                                          
%ENDBLOCK SPECIES_ATOMIC_SET                                                    
%BLOCK LATTICE_CART                                                             
32.21  0.00  0.00                                                               
0.00 18.59  0.00                                                                
0.00  0.00 70.99                                                                
%ENDBLOCK LATTICE_CART                                                          
%BLOCK POSITIONS_ABS                                                            
C  0.00  0.00  3.55                                                             
C  0.00  0.00 17.75                                                             
C  0.00  0.00 31.94                                                             
C  0.00  0.00 46.14                                                             
C  0.00  0.00 60.34                                                             
C  0.00  4.65  3.55                                                             
C  0.00  4.65 17.75                                                             
C  0.00  4.65 31.94                                                             
C  0.00  4.65 46.14                                                             
C  0.00  4.65 60.34                                                             
C  4.03  2.32  3.55                                                             
C  4.03  2.32 17.75                                                             
C  4.03  2.32 31.94                                                             
C  4.03  2.32 46.14                                                             
C  4.03  2.32 60.34                                                             
C  8.05  0.00  3.55                                                             
C  8.05  0.00 17.75                                                             
C  8.05  0.00 31.94                                                             
C  8.05  0.00 46.14                                                             
C  8.05  0.00 60.34                                                             
C  0.00  9.30  3.55                                                             
C  0.00  9.30 17.75                                                             
C  0.00  9.30 31.94                                                             
C  0.00  9.30 46.14                                                             
C  0.00  9.30 60.34                                                             
C  4.03  6.97  3.55                                                             
C  4.03  6.97 17.75                                                             
C  4.03  6.97 31.94                                                             
C  4.03  6.97 46.14                                                             
C  4.03  6.97 60.34                                                             
C  8.05  4.65  3.55                                                             
C  8.05  4.65 17.75                                                             
C  8.05  4.65 31.94                                                             
C  8.05  4.65 46.14                                                             
C  8.05  4.65 60.34                                                             
C 12.08  2.32  3.55                                                             
C 12.08  2.32 17.75                                                             
C 12.08  2.32 31.94                                                             
C 12.08  2.32 46.14                                                             
C 12.08  2.32 60.34                                                             
C 16.10  0.00  3.55                                                             
C 16.10  0.00 17.75                                                             
C 16.10  0.00 31.94                                                             
C 16.10  0.00 46.14                                                             
C 16.10  0.00 60.34                                                             
C  0.00 13.95  3.55                                                             
C  0.00 13.95 17.75                                                             
C  0.00 13.95 31.94                                                             
C  0.00 13.95 46.14                                                             
C  0.00 13.95 60.34                                                             
C  4.03 11.62  3.55                                                             
C  4.03 11.62 17.75                                                             
C  4.03 11.62 31.94                                                             
C  4.03 11.62 46.14                                                             
C  4.03 11.62 60.34                                                             
C  8.05  9.30  3.55                                                             
C  8.05  9.30 17.75                                                             
C  8.05  9.30 31.94                                                             
C  8.05  9.30 46.14                                                             
C  8.05  9.30 60.34                                                             
C 12.08  6.97  3.55                                                             
C 12.08  6.97 17.75                                                             
C 12.08  6.97 31.94                                                             
C 12.08  6.97 46.14                                                             
C 12.08  6.97 60.34                                                             
C 16.10  4.65  3.55                                                             
C 16.10  4.65 17.75                                                             
C 16.10  4.65 31.94                                                             
C 16.10  4.65 46.14                                                             
C 16.10  4.65 60.34                                                             
C 20.13  2.32  3.55                                                             
C 20.13  2.32 17.75                                                             
C 20.13  2.32 31.94                                                             
C 20.13  2.32 46.14                                                             
C 20.13  2.32 60.34                                                             
C 24.16  0.00  3.55                                                             
C 24.16  0.00 17.75                                                             
C 24.16  0.00 31.94                                                             
C 24.16  0.00 46.14                                                             
C 24.16  0.00 60.34                                                             
C  4.03 16.27  3.55                                                             
C  4.03 16.27 17.75                                                             
C  4.03 16.27 31.94                                                             
C  4.03 16.27 46.14                                                             
C  4.03 16.27 60.34                                                             
C  8.05 13.95  3.55                                                             
C  8.05 13.95 17.75                                                             
C  8.05 13.95 31.94                                                             
C  8.05 13.95 46.14                                                             
C  8.05 13.95 60.34                                                             
C 12.08 11.62  3.55                                                             
C 12.08 11.62 17.75                                                             
C 12.08 11.62 31.94                                                             
C 12.08 11.62 46.14                                                             
C 12.08 11.62 60.34                                                             
C 16.10  9.30  3.55                                                             
C 16.10  9.30 17.75                                                             
C 16.10  9.30 31.94                                                             
C 16.10  9.30 46.14                                                             
C 16.10  9.30 60.34                                                             
C 20.13  6.97  3.55                                                             
C 20.13  6.97 17.75                                                             
C 20.13  6.97 31.94                                                             
C 20.13  6.97 46.14                                                             
C 20.13  6.97 60.34                                                             
C 24.16  4.65  3.55                                                             
C 24.16  4.65 17.75                                                             
C 24.16  4.65 31.94                                                             
C 24.16  4.65 46.14                                                             
C 24.16  4.65 60.34                                                             
C 28.18  2.32  3.55                                                             
C 28.18  2.32 17.75                                                             
C 28.18  2.32 31.94                                                             
C 28.18  2.32 46.14                                                             
C 28.18  2.32 60.34                                                             
C 12.08 16.27  3.55                                                             
C 12.08 16.27 17.75                                                             
C 12.08 16.27 31.94                                                             
C 12.08 16.27 46.14                                                             
C 12.08 16.27 60.34                                                             
C 16.10 13.95  3.55                                                             
C 16.10 13.95 17.75                                                             
C 16.10 13.95 31.94                                                             
C 16.10 13.95 46.14                                                             
C 16.10 13.95 60.34                                                             
C 20.13 11.62  3.55                                                             
C 20.13 11.62 17.75                                                             
C 20.13 11.62 31.94                                                             
C 20.13 11.62 46.14                                                             
C 20.13 11.62 60.34                                                             
C 24.16  9.30  3.55                                                             
C 24.16  9.30 17.75                                                             
C 24.16  9.30 31.94                                                             
C 24.16  9.30 46.14                                                             
C 24.16  9.30 60.34                                                             
C 28.18  6.97  3.55                                                             
C 28.18  6.97 17.75                                                             
C 28.18  6.97 31.94                                                             
C 28.18  6.97 46.14                                                             
C 28.18  6.97 60.34                                                             
C 20.13 16.27  3.55                                                             
C 20.13 16.27 17.75                                                             
C 20.13 16.27 31.94                                                             
C 20.13 16.27 46.14                                                             
C 20.13 16.27 60.34                                                             
C 24.16 13.95  3.55                                                             
C 24.16 13.95 17.75                                                             
C 24.16 13.95 31.94                                                             
C 24.16 13.95 46.14                                                             
C 24.16 13.95 60.34                                                             
C 28.18 11.62  3.55                                                             
C 28.18 11.62 17.75                                                             
C 28.18 11.62 31.94                                                             
C 28.18 11.62 46.14                                                             
C 28.18 11.62 60.34                                                             
C 28.18 16.27  3.55                                                             
C 28.18 16.27 17.75                                                             
C 28.18 16.27 31.94                                                             
C 28.18 16.27 46.14                                                             
C 28.18 16.27 60.34                                                             
C  0.00  0.00 10.65                                                             
C  0.00  0.00 24.85                                                             
C  0.00  0.00 39.04                                                             
C  0.00  0.00 53.24                                                             
C  0.00  0.00 67.44                                                             
C  0.00  4.65 10.65                                                             
C  0.00  4.65 24.85                                                             
C  0.00  4.65 39.04                                                             
C  0.00  4.65 53.24                                                             
C  0.00  4.65 67.44                                                             
C  4.03  2.32 10.65                                                             
C  4.03  2.32 24.85                                                             
C  4.03  2.32 39.04                                                             
C  4.03  2.32 53.24                                                             
C  4.03  2.32 67.44                                                             
C  8.05  0.00 10.65                                                             
C  8.05  0.00 24.85                                                             
C  8.05  0.00 39.04                                                             
C  8.05  0.00 53.24                                                             
C  8.05  0.00 67.44                                                             
C  0.00  9.30 10.65                                                             
C  0.00  9.30 24.85                                                             
C  0.00  9.30 39.04                                                             
C  0.00  9.30 53.24                                                             
C  0.00  9.30 67.44                                                             
C  4.03  6.97 10.65                                                             
C  4.03  6.97 24.85                                                             
C  4.03  6.97 39.04                                                             
C  4.03  6.97 53.24                                                             
C  4.03  6.97 67.44                                                             
C  8.05  4.65 10.65                                                             
C  8.05  4.65 24.85                                                             
C  8.05  4.65 39.04                                                             
C  8.05  4.65 53.24                                                             
C  8.05  4.65 67.44                                                             
C 12.08  2.32 10.65                                                             
C 12.08  2.32 24.85                                                             
C 12.08  2.32 39.04                                                             
C 12.08  2.32 53.24                                                             
C 12.08  2.32 67.44                                                             
C 16.10  0.00 10.65                                                             
C 16.10  0.00 24.85                                                             
C 16.10  0.00 39.04                                                             
C 16.10  0.00 53.24                                                             
C 16.10  0.00 67.44                                                             
C  0.00 13.95 10.65                                                             
C  0.00 13.95 24.85                                                             
C  0.00 13.95 39.04                                                             
C  0.00 13.95 53.24                                                             
C  0.00 13.95 67.44                                                             
C  4.03 11.62 10.65                                                             
C  4.03 11.62 24.85                                                             
C  4.03 11.62 39.04                                                             
C  4.03 11.62 53.24                                                             
C  4.03 11.62 67.44                                                             
C  8.05  9.30 10.65                                                             
C  8.05  9.30 24.85                                                             
C  8.05  9.30 39.04                                                             
C  8.05  9.30 53.24                                                             
C  8.05  9.30 67.44                                                             
C 12.08  6.97 10.65                                                             
C 12.08  6.97 24.85                                                             
C 12.08  6.97 39.04                                                             
C 12.08  6.97 53.24                                                             
C 12.08  6.97 67.44                                                             
C 16.10  4.65 10.65                                                             
C 16.10  4.65 24.85                                                             
C 16.10  4.65 39.04                                                             
C 16.10  4.65 53.24                                                             
C 16.10  4.65 67.44                                                             
C 20.13  2.32 10.65                                                             
C 20.13  2.32 24.85                                                             
C 20.13  2.32 39.04                                                             
C 20.13  2.32 53.24                                                             
C 20.13  2.32 67.44                                                             
C 24.16  0.00 10.65                                                             
C 24.16  0.00 24.85                                                             
C 24.16  0.00 39.04                                                             
C 24.16  0.00 53.24                                                             
C 24.16  0.00 67.44                                                             
C  4.03 16.27 10.65                                                             
C  4.03 16.27 24.85                                                             
C  4.03 16.27 39.04                                                             
C  4.03 16.27 53.24                                                             
C  4.03 16.27 67.44                                                             
C  8.05 13.95 10.65                                                             
C  8.05 13.95 24.85                                                             
C  8.05 13.95 39.04                                                             
C  8.05 13.95 53.24                                                             
C  8.05 13.95 67.44                                                             
C 12.08 11.62 10.65                                                             
C 12.08 11.62 24.85                                                             
C 12.08 11.62 39.04                                                             
C 12.08 11.62 53.24                                                             
C 12.08 11.62 67.44                                                             
C 16.10  9.30 10.65                                                             
C 16.10  9.30 24.85                                                             
C 16.10  9.30 39.04                                                             
C 16.10  9.30 53.24                                                             
C 16.10  9.30 67.44                                                             
C 20.13  6.97 10.65                                                             
C 20.13  6.97 24.85                                                             
C 20.13  6.97 39.04                                                             
C 20.13  6.97 53.24                                                             
C 20.13  6.97 67.44                                                             
C 24.16  4.65 10.65                                                             
C 24.16  4.65 24.85                                                             
C 24.16  4.65 39.04                                                             
C 24.16  4.65 53.24                                                             
C 24.16  4.65 67.44                                                             
C 28.18  2.32 10.65                                                             
C 28.18  2.32 24.85                                                             
C 28.18  2.32 39.04                                                             
C 28.18  2.32 53.24                                                             
C 28.18  2.32 67.44                                                             
C 12.08 16.27 10.65                                                             
C 12.08 16.27 24.85                                                             
C 12.08 16.27 39.04                                                             
C 12.08 16.27 53.24                                                             
C 12.08 16.27 67.44                                                             
C 16.10 13.95 10.65                                                             
C 16.10 13.95 24.85                                                             
C 16.10 13.95 39.04                                                             
C 16.10 13.95 53.24                                                             
C 16.10 13.95 67.44                                                             
C 20.13 11.62 10.65                                                             
C 20.13 11.62 24.85                                                             
C 20.13 11.62 39.04                                                             
C 20.13 11.62 53.24                                                             
C 20.13 11.62 67.44                                                             
C 24.16  9.30 10.65                                                             
C 24.16  9.30 24.85                                                             
C 24.16  9.30 39.04                                                             
C 24.16  9.30 53.24                                                             
C 24.16  9.30 67.44                                                             
C 28.18  6.97 10.65                                                             
C 28.18  6.97 24.85                                                             
C 28.18  6.97 39.04                                                             
C 28.18  6.97 53.24                                                             
C 28.18  6.97 67.44                                                             
C 20.13 16.27 10.65                                                             
C 20.13 16.27 24.85                                                             
C 20.13 16.27 39.04                                                             
C 20.13 16.27 53.24                                                             
C 20.13 16.27 67.44                                                             
C 24.16 13.95 10.65                                                             
C 24.16 13.95 24.85                                                             
C 24.16 13.95 39.04                                                             
C 24.16 13.95 53.24                                                             
C 24.16 13.95 67.44                                                             
C 28.18 11.62 10.65                                                             
C 28.18 11.62 24.85                                                             
C 28.18 11.62 39.04                                                             
C 28.18 11.62 53.24                                                             
C 28.18 11.62 67.44                                                             
C 28.18 16.27 10.65                                                             
C 28.18 16.27 24.85                                                             
C 28.18 16.27 39.04                                                             
C 28.18 16.27 53.24                                                             
C 28.18 16.27 67.44                                                             
C  1.34  2.32  3.55                                                             
C  1.34  2.32 17.75                                                             
C  1.34  2.32 31.94                                                             
C  1.34  2.32 46.14                                                             
C  1.34  2.32 60.34                                                             
C  5.37  0.00  3.55                                                             
C  5.37  0.00 17.75                                                             
C  5.37  0.00 31.94                                                             
C  5.37  0.00 46.14                                                             
C  5.37  0.00 60.34                                                             
C  1.34  6.97  3.55                                                             
C  1.34  6.97 17.75                                                             
C  1.34  6.97 31.94                                                             
C  1.34  6.97 46.14                                                             
C  1.34  6.97 60.34                                                             
C  5.37  4.65  3.55                                                             
C  5.37  4.65 17.75                                                             
C  5.37  4.65 31.94                                                             
C  5.37  4.65 46.14                                                             
C  5.37  4.65 60.34                                                             
C  9.39  2.32  3.55                                                             
C  9.39  2.32 17.75                                                             
C  9.39  2.32 31.94                                                             
C  9.39  2.32 46.14                                                             
C  9.39  2.32 60.34                                                             
C 13.42  0.00  3.55                                                             
C 13.42  0.00 17.75                                                             
C 13.42  0.00 31.94                                                             
C 13.42  0.00 46.14                                                             
C 13.42  0.00 60.34                                                             
C  1.34 11.62  3.55                                                             
C  1.34 11.62 17.75                                                             
C  1.34 11.62 31.94                                                             
C  1.34 11.62 46.14                                                             
C  1.34 11.62 60.34                                                             
C  5.37  9.30  3.55                                                             
C  5.37  9.30 17.75                                                             
C  5.37  9.30 31.94                                                             
C  5.37  9.30 46.14                                                             
C  5.37  9.30 60.34                                                             
C  9.39  6.97  3.55                                                             
C  9.39  6.97 17.75                                                             
C  9.39  6.97 31.94                                                             
C  9.39  6.97 46.14                                                             
C  9.39  6.97 60.34                                                             
C 13.42  4.65  3.55                                                             
C 13.42  4.65 17.75                                                             
C 13.42  4.65 31.94                                                             
C 13.42  4.65 46.14                                                             
C 13.42  4.65 60.34                                                             
C 17.45  2.32  3.55                                                             
C 17.45  2.32 17.75                                                             
C 17.45  2.32 31.94                                                             
C 17.45  2.32 46.14                                                             
C 17.45  2.32 60.34                                                             
C 21.47  0.00  3.55                                                             
C 21.47  0.00 17.75                                                             
C 21.47  0.00 31.94                                                             
C 21.47  0.00 46.14                                                             
C 21.47  0.00 60.34                                                             
C  1.34 16.27  3.55                                                             
C  1.34 16.27 17.75                                                             
C  1.34 16.27 31.94                                                             
C  1.34 16.27 46.14                                                             
C  1.34 16.27 60.34                                                             
C  5.37 13.95  3.55                                                             
C  5.37 13.95 17.75                                                             
C  5.37 13.95 31.94                                                             
C  5.37 13.95 46.14                                                             
C  5.37 13.95 60.34                                                             
C  9.39 11.62  3.55                                                             
C  9.39 11.62 17.75                                                             
C  9.39 11.62 31.94                                                             
C  9.39 11.62 46.14                                                             
C  9.39 11.62 60.34                                                             
C 13.42  9.30  3.55                                                             
C 13.42  9.30 17.75                                                             
C 13.42  9.30 31.94                                                             
C 13.42  9.30 46.14                                                             
C 13.42  9.30 60.34                                                             
C 17.45  6.97  3.55                                                             
C 17.45  6.97 17.75                                                             
C 17.45  6.97 31.94                                                             
C 17.45  6.97 46.14                                                             
C 17.45  6.97 60.34                                                             
C 21.47  4.65  3.55                                                             
C 21.47  4.65 17.75                                                             
C 21.47  4.65 31.94                                                             
C 21.47  4.65 46.14                                                             
C 21.47  4.65 60.34                                                             
C 25.50  2.32  3.55                                                             
C 25.50  2.32 17.75                                                             
C 25.50  2.32 31.94                                                             
C 25.50  2.32 46.14                                                             
C 25.50  2.32 60.34                                                             
C 29.52  0.00  3.55                                                             
C 29.52  0.00 17.75                                                             
C 29.52  0.00 31.94                                                             
C 29.52  0.00 46.14                                                             
C 29.52  0.00 60.34                                                             
C  9.39 16.27  3.55                                                             
C  9.39 16.27 17.75                                                             
C  9.39 16.27 31.94                                                             
C  9.39 16.27 46.14                                                             
C  9.39 16.27 60.34                                                             
C 13.42 13.95  3.55                                                             
C 13.42 13.95 17.75                                                             
C 13.42 13.95 31.94                                                             
C 13.42 13.95 46.14                                                             
C 13.42 13.95 60.34                                                             
C 17.45 11.62  3.55                                                             
C 17.45 11.62 17.75                                                             
C 17.45 11.62 31.94                                                             
C 17.45 11.62 46.14                                                             
C 17.45 11.62 60.34                                                             
C 21.47  9.30  3.55                                                             
C 21.47  9.30 17.75                                                             
C 21.47  9.30 31.94                                                             
C 21.47  9.30 46.14                                                             
C 21.47  9.30 60.34                                                             
C 25.50  6.97  3.55                                                             
C 25.50  6.97 17.75                                                             
C 25.50  6.97 31.94                                                             
C 25.50  6.97 46.14                                                             
C 25.50  6.97 60.34                                                             
C 29.52  4.65  3.55                                                             
C 29.52  4.65 17.75                                                             
C 29.52  4.65 31.94                                                             
C 29.52  4.65 46.14                                                             
C 29.52  4.65 60.34                                                             
C 17.45 16.27  3.55                                                             
C 17.45 16.27 17.75                                                             
C 17.45 16.27 31.94                                                             
C 17.45 16.27 46.14                                                             
C 17.45 16.27 60.34                                                             
C 21.47 13.95  3.55                                                             
C 21.47 13.95 17.75                                                             
C 21.47 13.95 31.94                                                             
C 21.47 13.95 46.14                                                             
C 21.47 13.95 60.34                                                             
C 25.50 11.62  3.55                                                             
C 25.50 11.62 17.75                                                             
C 25.50 11.62 31.94                                                             
C 25.50 11.62 46.14                                                             
C 25.50 11.62 60.34                                                             
C 29.52  9.30  3.55                                                             
C 29.52  9.30 17.75                                                             
C 29.52  9.30 31.94                                                             
C 29.52  9.30 46.14                                                             
C 29.52  9.30 60.34                                                             
C 25.50 16.27  3.55                                                             
C 25.50 16.27 17.75                                                             
C 25.50 16.27 31.94                                                             
C 25.50 16.27 46.14                                                             
C 25.50 16.27 60.34                                                             
C 29.52 13.95  3.55                                                             
C 29.52 13.95 17.75                                                             
C 29.52 13.95 31.94                                                             
C 29.52 13.95 46.14                                                             
C 29.52 13.95 60.34                                                             
C  2.68  0.00 10.65                                                             
C  2.68  0.00 24.85                                                             
C  2.68  0.00 39.04                                                             
C  2.68  0.00 53.24                                                             
C  2.68  0.00 67.44                                                             
C  2.68  4.65 10.65                                                             
C  2.68  4.65 24.85                                                             
C  2.68  4.65 39.04                                                             
C  2.68  4.65 53.24                                                             
C  2.68  4.65 67.44                                                             
C  6.71  2.32 10.65                                                             
C  6.71  2.32 24.85                                                             
C  6.71  2.32 39.04                                                             
C  6.71  2.32 53.24                                                             
C  6.71  2.32 67.44                                                             
C 10.74  0.00 10.65                                                             
C 10.74  0.00 24.85                                                             
C 10.74  0.00 39.04                                                             
C 10.74  0.00 53.24                                                             
C 10.74  0.00 67.44                                                             
C  2.68  9.30 10.65                                                             
C  2.68  9.30 24.85                                                             
C  2.68  9.30 39.04                                                             
C  2.68  9.30 53.24                                                             
C  2.68  9.30 67.44                                                             
C  6.71  6.97 10.65                                                             
C  6.71  6.97 24.85                                                             
C  6.71  6.97 39.04                                                             
C  6.71  6.97 53.24                                                             
C  6.71  6.97 67.44                                                             
C 10.74  4.65 10.65                                                             
C 10.74  4.65 24.85                                                             
C 10.74  4.65 39.04                                                             
C 10.74  4.65 53.24                                                             
C 10.74  4.65 67.44                                                             
C 14.76  2.32 10.65                                                             
C 14.76  2.32 24.85                                                             
C 14.76  2.32 39.04                                                             
C 14.76  2.32 53.24                                                             
C 14.76  2.32 67.44                                                             
C 18.79  0.00 10.65                                                             
C 18.79  0.00 24.85                                                             
C 18.79  0.00 39.04                                                             
C 18.79  0.00 53.24                                                             
C 18.79  0.00 67.44                                                             
C  2.68 13.95 10.65                                                             
C  2.68 13.95 24.85                                                             
C  2.68 13.95 39.04                                                             
C  2.68 13.95 53.24                                                             
C  2.68 13.95 67.44                                                             
C  6.71 11.62 10.65                                                             
C  6.71 11.62 24.85                                                             
C  6.71 11.62 39.04                                                             
C  6.71 11.62 53.24                                                             
C  6.71 11.62 67.44                                                             
C 10.74  9.30 10.65                                                             
C 10.74  9.30 24.85                                                             
C 10.74  9.30 39.04                                                             
C 10.74  9.30 53.24                                                             
C 10.74  9.30 67.44                                                             
C 14.76  6.97 10.65                                                             
C 14.76  6.97 24.85                                                             
C 14.76  6.97 39.04                                                             
C 14.76  6.97 53.24                                                             
C 14.76  6.97 67.44                                                             
C 18.79  4.65 10.65                                                             
C 18.79  4.65 24.85                                                             
C 18.79  4.65 39.04                                                             
C 18.79  4.65 53.24                                                             
C 18.79  4.65 67.44                                                             
C 22.81  2.32 10.65                                                             
C 22.81  2.32 24.85                                                             
C 22.81  2.32 39.04                                                             
C 22.81  2.32 53.24                                                             
C 22.81  2.32 67.44                                                             
C 26.84  0.00 10.65                                                             
C 26.84  0.00 24.85                                                             
C 26.84  0.00 39.04                                                             
C 26.84  0.00 53.24                                                             
C 26.84  0.00 67.44                                                             
C  6.71 16.27 10.65                                                             
C  6.71 16.27 24.85                                                             
C  6.71 16.27 39.04                                                             
C  6.71 16.27 53.24                                                             
C  6.71 16.27 67.44                                                             
C 10.74 13.95 10.65                                                             
C 10.74 13.95 24.85                                                             
C 10.74 13.95 39.04                                                             
C 10.74 13.95 53.24                                                             
C 10.74 13.95 67.44                                                             
C 14.76 11.62 10.65                                                             
C 14.76 11.62 24.85                                                             
C 14.76 11.62 39.04                                                             
C 14.76 11.62 53.24                                                             
C 14.76 11.62 67.44                                                             
C 18.79  9.30 10.65                                                             
C 18.79  9.30 24.85                                                             
C 18.79  9.30 39.04                                                             
C 18.79  9.30 53.24                                                             
C 18.79  9.30 67.44                                                             
C 22.81  6.97 10.65                                                             
C 22.81  6.97 24.85                                                             
C 22.81  6.97 39.04                                                             
C 22.81  6.97 53.24                                                             
C 22.81  6.97 67.44                                                             
C 26.84  4.65 10.65                                                             
C 26.84  4.65 24.85                                                             
C 26.84  4.65 39.04                                                             
C 26.84  4.65 53.24                                                             
C 26.84  4.65 67.44                                                             
C 30.86  2.32 10.65                                                             
C 30.86  2.32 24.85                                                             
C 30.86  2.32 39.04                                                             
C 30.86  2.32 53.24                                                             
C 30.86  2.32 67.44                                                             
C 14.76 16.27 10.65                                                             
C 14.76 16.27 24.85                                                             
C 14.76 16.27 39.04                                                             
C 14.76 16.27 53.24                                                             
C 14.76 16.27 67.44                                                             
C 18.79 13.95 10.65                                                             
C 18.79 13.95 24.85                                                             
C 18.79 13.95 39.04                                                             
C 18.79 13.95 53.24                                                             
C 18.79 13.95 67.44                                                             
C 22.81 11.62 10.65                                                             
C 22.81 11.62 24.85                                                             
C 22.81 11.62 39.04                                                             
C 22.81 11.62 53.24                                                             
C 22.81 11.62 67.44                                                             
C 26.84  9.30 10.65                                                             
C 26.84  9.30 24.85                                                             
C 26.84  9.30 39.04                                                             
C 26.84  9.30 53.24                                                             
C 26.84  9.30 67.44                                                             
C 30.86  6.97 10.65                                                             
C 30.86  6.97 24.85                                                             
C 30.86  6.97 39.04                                                             
C 30.86  6.97 53.24                                                             
C 30.86  6.97 67.44                                                             
C 22.81 16.27 10.65                                                             
C 22.81 16.27 24.85                                                             
C 22.81 16.27 39.04                                                             
C 22.81 16.27 53.24                                                             
C 22.81 16.27 67.44                                                             
C 26.84 13.95 10.65                                                             
C 26.84 13.95 24.85                                                             
C 26.84 13.95 39.04                                                             
C 26.84 13.95 53.24                                                             
C 26.84 13.95 67.44                                                             
C 30.86 11.62 10.65                                                             
C 30.86 11.62 24.85                                                             
C 30.86 11.62 39.04                                                             
C 30.86 11.62 53.24                                                             
C 30.86 11.62 67.44                                                             
C 30.86 16.27 10.65                                                             
C 30.86 16.27 24.85                                                             
C 30.86 16.27 39.04                                                             
C 30.86 16.27 53.24                                                             
C 30.86 16.27 67.44                                                             
%ENDBLOCK POSITIONS_ABS                                                         

--------------------------------------------------------------------------------
-------------------------------- END INPUT FILE --------------------------------
--------------------------------------------------------------------------------


 
<<<<<<<<<<<<<<<<<<<<<<<<<<<<<<<<< Full system >>>>>>>>>>>>>>>>>>>>>>>>>>>>>>>>>>
<<<<<<<<<<<<<<<<<<<<<<<<<<< PAW Dataset information >>>>>>>>>>>>>>>>>>>>>>>>>>>
File: ~/pp/paw/c_pbe_abinit.paw; rc = 1.25 bohr; shape type =  3; rshape = 1.25 bohr;
  Atomic number:  6;  ionic charge:  4.000000
    Partial Wave 1: l = 0
    Partial Wave 2: l = 0
    Partial Wave 3: l = 1
    Partial Wave 4: l = 1
  Core charge supplied for Nonlinear Core Corrections
<<<<<<<<<<<<<<<<<<<<<<<<<<<<<<<<<<<<<<< >>>>>>>>>>>>>>>>>>>>>>>>>>>>>>>>>>>>>>>

-------------------------- Atom counting information ---------------------------
Symbol    Natoms    Nngwfs    Nprojs
  C        640      2560      5120
.......   ......    ......    ......
Totals:    640      2560      5120
--------------------------------------------------------------------------------

=============================== PSINC grid sizes ===============================
                      Simulation cell:   63 x  35 x 140
                              FFT-box:   63 x  35 x 117
                                  PPD:    7 x   5 x   1
Grid space d1=  0.511269841270a0 (KE cutoff=  29.06054Eh = 790.77748eV)
Grid space d2=  0.531142857143a0 (KE cutoff=  26.92659Eh = 732.70972eV)
Grid space d3=  0.507071428571a0 (KE cutoff=  29.54376Eh = 803.92653eV)
================================================================================
  
WARNING in cell_grid_distribute:
Average of less than one 23-slab per node, so workload cannot be
equally balanced between nodes.

********************* Fourier parallelisation information **********************
       Coarse grid (whole simulation cell) dimensions:     63    35   140
          Real-space ('12') slabs/node (min max mean):      3     4     3
         Recip-space ('23') slabs/node (min max mean):      0     1     0
********************************************************************************

********************* Fourier parallelisation information **********************
       Double grid (whole simulation cell) dimensions:    126    70   280
          Real-space ('12') slabs/node (min max mean):      7     7     7
         Recip-space ('23') slabs/node (min max mean):      1     2     1
********************************************************************************

Atom SCF Calculation for C  : Z (AE atom) =   6 : Z (PS atom) =   4
Config String: 2s2 2p2
Orbitals (num,occ):  2     2.00 2.00
Orbitals   (num,l):  2        0    1
Real-space Grid (nr,dr,rmax): 1293    0.0069659443    9.0000000000
Spherical Bessel Basis (nsws,lmax,cutoff):   37    2  161.4736382572
Confining potential (l,width,scale):  0    3.0000000000  100.0000000000
Confining potential (l,width,scale):  1    3.0000000000  100.0000000000
  1         -5.4691149987   -1.3647045835    4.5135257941   -1.6713568800
  2         -5.5214542834   -1.4154291535    4.4635199061   -1.6585170582
  3         -5.5221055910   -1.4439161209    4.4342087028   -1.6520281659
  4         -5.5287901521   -1.4522301802    4.4259176063   -1.6507873939
  5         -5.5308251003   -1.4557840400    4.4224142384   -1.6502632738
  6         -5.5317252094   -1.4571386008    4.4211068249   -1.6500892907
  7         -5.5320765973   -1.4576738924    4.4205997642   -1.6500256779
  8         -5.5322192721   -1.4578833190    4.4204056023   -1.6500032912
  9         -5.5322765240   -1.4579657561    4.4203308649   -1.6499954152
 10         -5.5322995843   -1.4579982639    4.4203020904   -1.6499927055
 11         -5.5323088576   -1.4580111317    4.4202909828   -1.6499917962
 12         -5.5323125859   -1.4580162439    4.4202866844   -1.6499915030
 13         -5.5323140836   -1.4580182832    4.4202850159   -1.6499914143
 14         -5.5323146847   -1.4580191002    4.4202843659   -1.6499913905
 15         -5.5323149258   -1.4580194290    4.4202841117   -1.6499913858
 16         -5.5323150224   -1.4580195619    4.4202840119   -1.6499913859
Atom SCF converged after  16 iterations to a total energy of     -5.53231502

Determining parallel strategy ...
... using space-filling curve
... NGWF load balancing: max     64;  min     64;  average     64
... Projector load balancing: max    128;  min    128;  average    128
... done
Calculating Ewald energy ...
              Ewald: real-space energy =    9484.647111
        Ewald: reciprocal-space energy =       0.376905
         Ewald: (sum_charge)**2 Energy =   10895.174240
         Ewald: (sum_charge**2) Energy =     861.339153
                          Ewald Energy =   -2271.489376
Basis initialisation ...... NGWF spheres initialised
... Projector spheres initialised
... NGWF tight boxes initialised
... Projector tight boxes initialised
... Tight-boxes gathered
... NGWF basis size (local,global):     691956  27874240
... PAW projector initialisation
... done

============================= Charge Augmentation ==============================
                           Aug box size:   11 x  11 x  11
================================================================================

========================== Sparse matrix information ===========================
                        Overlap matrix filling:  40.94%
                        Density kernel filling: 100.00%
              NGWF-Proj overlap matrix filling:  12.19%
                    Aug Overlap matrix filling:  47.03%
                    Hamiltonian matrix filling:  47.03%
                  NGWF diagonal matrix filling:   0.16%
                             KS matrix filling: 100.00% 
                           KSKS matrix filling: 100.00% 
================================================================================

Sparse matrix initialisation ... done
NGWF initialisation ...... done
============ Calculation of NGWF S^-1 using Hotelling algorithm ================ 
         Iteration  |  Frobenius norm and Maximum abs value    (of I-S*S_n^-1)   
               1       0.48952313E+02     0.97459374E+00
               2       0.47653463E+02     0.95103575E+00
               3       0.45728821E+02     0.90862069E+00
               4       0.43264103E+02     0.83826858E+00
               5       0.40331402E+02     0.73453625E+00
               6       0.36953044E+02     0.67315532E+00
               7       0.33470399E+02     0.62638563E+00
               8       0.30119487E+02     0.58637978E+00
               9       0.26440451E+02     0.54000406E+00
              10       0.21732528E+02     0.46596837E+00
              11       0.15654752E+02     0.35034333E+00
              12       0.88730468E+01     0.20324133E+00
              13       0.32896177E+01     0.73396269E-01
              14       0.53974844E+00     0.11046729E-01
              15       0.17094995E-01     0.30637715E-03
              16       0.21835777E-04     0.29874096E-06
              17       0.54082570E-10     0.45219384E-12
================================================================================
Calculating core density ...
================================= Core Density =================================
               Core den box size:   21 x  21 x  21
================================================================================
 ... done
Up spin density kernel initialisation ...... done

Writing density kernel to file "3.756468_GO_manual_4x64graphite.dkn" ... done

>>> Optimising kernel for current NGWFs:

--------------------------- Ensemble-DFT optimisation --------------------------
Running ScaLAPACK on   40 processor(s).

--------------------------------------------------------------------------------
  Iter                              Commutator    Free_energy(A=E-TS)     DeltaA
#    0                          0.000047795132   -3680.01659766973444  -3.68E+03

Step                       =       0.381966011250
Energy                     =   -3680.016565496936
Entropy (-TS)              =      -0.000032172895
Free energy (A=E-TS)       =   -3680.016597669734
Est. 0K Energy 0.5*(E+A)   =   -3680.016581583335
Residual Non-orthogonality =       0.000000000000
Residual N_electrons       =       0.000000000097

Spin          Integrated_Ne            Fermi_level     Delta_Fermi_level
   1      2559.999999999367         0.153219206111              1.53E-01

                           Spin 1          
     Orb      H-eigenvalues     Occupancies
       1 |    -0.5618553696    1.0000000000 | 
                          ------
    1276 |     0.1186126163    0.9999820499 | 
    1277 |     0.1192292957    0.9999781910 | 
    1278 |     0.1192353071    0.9999781495 | 
    1279 |     0.1192718328    0.9999778961 | 
    1280 |     0.1198951350    0.9999730880 | 
                 - Gap at zero temperature -
    1281 |     0.1887235257    0.0000135193 | 
    1282 |     0.1887413586    0.0000134434 | 
    1283 |     0.1887442645    0.0000134311 | 
    1284 |     0.1889205814    0.0000127037 | 
    1285 |     0.1889239470    0.0000126902 | 
                          ------
    2560 |     0.9732970573    0.0000000000 | 

                       |  Abs_value |  Threshold | Converged
     Delta_Free_energy |   3.68E+03 |   1.00E-06 |        No
     Delta_Energy      |   3.68E+03 |   1.00E-04 |        No
     Delta_Entropy     |   3.22E-05 |   1.00E-04 |       Yes
     Commutator        |   4.78E-05 |   1.00E-05 |        No
     Delta_Fermi_level |   1.53E-01 |   1.00E-03 |        No

  Line search of the free energy minimum:
  Step_type        Step             Free_energy   Predicted_free_energy
.   Initial    0.000000    -3680.01659766973444
.    Trial1    0.381966    -3680.01909503344450
.    Trial2    0.618034    -3680.01979426523576
. Quadratic    0.755945    -3680.01990696818439    -3680.01990431859622

--------------------------------------------------------------------------------
  Iter                              Commutator    Free_energy(A=E-TS)     DeltaA
#    1                          0.000023611357   -3680.01990696818439  -3.31E-03

Step                       =       0.755944561346
Energy                     =   -3680.019876093390
Entropy (-TS)              =      -0.000030875180
Free energy (A=E-TS)       =   -3680.019906968184
Est. 0K Energy 0.5*(E+A)   =   -3680.019891530787
Residual Non-orthogonality =       0.000000000000
Residual N_electrons       =       0.000000000386

Spin          Integrated_Ne            Fermi_level     Delta_Fermi_level
   1      2559.999999997479         0.152927409451             -2.92E-04

                           Spin 1          
     Orb      H-eigenvalues     Occupancies
       1 |    -0.5656503396    1.0000000000 | 
                          ------
    1276 |     0.1182601602    0.9999823905 | 
    1277 |     0.1186746066    0.9999799283 | 
    1278 |     0.1186841345    0.9999798678 | 
    1279 |     0.1189063215    0.9999784046 | 
    1280 |     0.1193305448    0.9999753091 | 
                 - Gap at zero temperature -
    1281 |     0.1884713194    0.0000133514 | 
    1282 |     0.1885069087    0.0000132021 | 
    1283 |     0.1885156537    0.0000131657 | 
    1284 |     0.1886858086    0.0000124770 | 
    1285 |     0.1886987923    0.0000124260 | 
                          ------
    2560 |     0.9711080295    0.0000000000 | 

                       |  Abs_value |  Threshold | Converged
     Delta_Free_energy |   3.31E-03 |   1.00E-06 |        No
     Delta_Energy      |   3.31E-03 |   1.00E-04 |        No
     Delta_Entropy     |   1.30E-06 |   1.00E-04 |       Yes
     Commutator        |   2.36E-05 |   1.00E-05 |        No
     Delta_Fermi_level |   2.92E-04 |   1.00E-03 |       Yes

  Line search of the free energy minimum:
  Step_type        Step             Free_energy   Predicted_free_energy
.   Initial    0.000000    -3680.01990696818439
.    Trial1    0.755945    -3680.01775280751872
.    Trial2    0.288745    -3680.02040808751281
. Quadratic    0.232792    -3680.02043904663424    -3680.02043881323289

--------------------------------------------------------------------------------
  Iter                              Commutator    Free_energy(A=E-TS)     DeltaA
#    2                          0.000010072704   -3680.02043904663424  -5.32E-04

Step                       =       0.232791776840
Energy                     =   -3680.020408283280
Entropy (-TS)              =      -0.000030763062
Free energy (A=E-TS)       =   -3680.020439046634
Est. 0K Energy 0.5*(E+A)   =   -3680.020423664957
Residual Non-orthogonality =       0.000000000000
Residual N_electrons       =      -0.000000000293

Spin          Integrated_Ne            Fermi_level     Delta_Fermi_level
   1      2560.000000001914         0.152920951658             -6.46E-06

                           Spin 1          
     Orb      H-eigenvalues     Occupancies
       1 |    -0.5659271539    1.0000000000 | 
                          ------
    1276 |     0.1181958202    0.9999827094 | 
    1277 |     0.1186902088    0.9999797880 | 
    1278 |     0.1186987097    0.9999797337 | 
    1279 |     0.1188411504    0.9999788013 | 
    1280 |     0.1193444049    0.9999751502 | 
                 - Gap at zero temperature -
    1281 |     0.1885107049    0.0000131595 | 
    1282 |     0.1885449321    0.0000130180 | 
    1283 |     0.1885538682    0.0000129813 | 
    1284 |     0.1887268675    0.0000122912 | 
    1285 |     0.1887392779    0.0000122431 | 
                          ------
    2560 |     0.9709470146    0.0000000000 | 

                       |  Abs_value |  Threshold | Converged
     Delta_Free_energy |   5.32E-04 |   1.00E-06 |        No
     Delta_Energy      |   5.32E-04 |   1.00E-04 |        No
     Delta_Entropy     |   1.12E-07 |   1.00E-04 |       Yes
     Commutator        |   1.01E-05 |   1.00E-05 |        No
     Delta_Fermi_level |   6.46E-06 |   1.00E-03 |       Yes

  Line search of the free energy minimum:
  Step_type        Step             Free_energy   Predicted_free_energy
.   Initial    0.000000    -3680.02043904663424
.    Trial1    0.232792    -3680.02052124311967
.    Trial2    0.525839    -3680.02053262452318
. Quadratic    0.411809    -3680.02054038273855    -3680.02054039525001

--------------------------------------------------------------------------------
  Iter                              Commutator    Free_energy(A=E-TS)     DeltaA
#    3                          0.000006438493   -3680.02054038273855  -1.01E-04

Step                       =       0.411809473823
Energy                     =   -3680.020509772799
Entropy (-TS)              =      -0.000030609693
Free energy (A=E-TS)       =   -3680.020540382739
Est. 0K Energy 0.5*(E+A)   =   -3680.020525077769
Residual Non-orthogonality =       0.000000000000
Residual N_electrons       =      -0.000000000246

Spin          Integrated_Ne            Fermi_level     Delta_Fermi_level
   1      2560.000000001610         0.152910368837             -1.06E-05

                           Spin 1          
     Orb      H-eigenvalues     Occupancies
       1 |    -0.5662916466    1.0000000000 | 
                          ------
    1276 |     0.1181402882    0.9999829531 | 
    1277 |     0.1186804518    0.9999797827 | 
    1278 |     0.1186878181    0.9999797357 | 
    1279 |     0.1187847268    0.9999791060 | 
    1280 |     0.1193326916    0.9999751591 | 
                 - Gap at zero temperature -
    1281 |     0.1885367769    0.0000130080 | 
    1282 |     0.1885696078    0.0000128739 | 
    1283 |     0.1885786102    0.0000128373 | 
    1284 |     0.1887541498    0.0000121451 | 
    1285 |     0.1887659096    0.0000121001 | 
                          ------
    2560 |     0.9707583241    0.0000000000 | 

                       |  Abs_value |  Threshold | Converged
     Delta_Free_energy |   1.01E-04 |   1.00E-06 |        No
     Delta_Energy      |   1.01E-04 |   1.00E-04 |        No
     Delta_Entropy     |   1.53E-07 |   1.00E-04 |       Yes
     Commutator        |   6.44E-06 |   1.00E-05 |       Yes
     Delta_Fermi_level |   1.06E-05 |   1.00E-03 |       Yes

  Line search of the free energy minimum:
  Step_type        Step             Free_energy   Predicted_free_energy
.   Initial    0.000000    -3680.02054038273855
.    Trial1    0.411809    -3680.02056563702035
.    Trial2    0.636478    -3680.02050545230441
. Quadratic    0.265187    -3680.02057676824461    -3680.02057675659398

--------------------------------------------------------------------------------
  Iter                              Commutator    Free_energy(A=E-TS)     DeltaA
#    4                          0.000004075976   -3680.02057676824461  -3.64E-05

Step                       =       0.265186764351
Energy                     =   -3680.020546218279
Entropy (-TS)              =      -0.000030550078
Free energy (A=E-TS)       =   -3680.020576768245
Est. 0K Energy 0.5*(E+A)   =   -3680.020561493262
Residual Non-orthogonality =       0.000000000000
Residual N_electrons       =       0.000000000113

Spin          Integrated_Ne            Fermi_level     Delta_Fermi_level
   1      2559.999999999263         0.152907284214             -3.08E-06

                           Spin 1          
     Orb      H-eigenvalues     Occupancies
       1 |    -0.5664300876    1.0000000000 | 
[...]
 C   160 -- C   385       -0.09      5.37000
 C   159 -- C   384       -0.09      5.37000
 C   158 -- C   383       -0.09      5.37000
 C   157 -- C   382       -0.09      5.37000
 C   156 -- C   381       -0.09      5.37000
 C   155 -- C   355       -0.09      5.37000
 C   154 -- C   354       -0.09      5.37000
 C   153 -- C   353       -0.09      5.37000
 C   152 -- C   352       -0.09      5.37000
 C   151 -- C   351       -0.09      5.37000
 C   140 -- C   335       -0.09      5.37000
 C   139 -- C   334       -0.09      5.37000
 C   138 -- C   333       -0.09      5.37000
 C   137 -- C   332       -0.09      5.37000
 C   136 -- C   331       -0.09      5.37000
 C   115 -- C   325       -0.09      5.37000
 C   114 -- C   324       -0.09      5.37000
 C   113 -- C   323       -0.09      5.37000
 C   112 -- C   322       -0.09      5.37000
 C   111 -- C   321       -0.09      5.37000
 C   219 -- C   569       -0.09      5.37202
 C   218 -- C   568       -0.09      5.37202
 C   217 -- C   567       -0.09      5.37202
 C   216 -- C   566       -0.09      5.37202
 C   250 -- C   540       -0.09      5.37202
 C   249 -- C   539       -0.09      5.37202
 C   248 -- C   538       -0.09      5.37202
 C   247 -- C   537       -0.09      5.37202
 C   246 -- C   536       -0.09      5.37202
 C   220 -- C   570       -0.09      5.37202
 C   285 -- C   580       -0.09      5.37202
 C   284 -- C   579       -0.09      5.37202
 C   283 -- C   578       -0.09      5.37202
 C   282 -- C   577       -0.09      5.37202
 C   281 -- C   576       -0.09      5.37202
 C   260 -- C   605       -0.09      5.37202
 C   259 -- C   604       -0.09      5.37202
 C   258 -- C   603       -0.09      5.37202
 C   257 -- C   602       -0.09      5.37202
 C   256 -- C   601       -0.09      5.37202
 C   220 -- C   515       -0.09      5.37202
 C   219 -- C   514       -0.09      5.37202
 C   218 -- C   513       -0.09      5.37202
 C   217 -- C   512       -0.09      5.37202
 C   216 -- C   511       -0.09      5.37202
 C   195 -- C   540       -0.09      5.37202
 C   195 -- C   500       -0.09      5.37202
 C   194 -- C   539       -0.09      5.37202
 C   194 -- C   499       -0.09      5.37202
 C   193 -- C   538       -0.09      5.37202
 C   193 -- C   498       -0.09      5.37202
 C   192 -- C   537       -0.09      5.37202
 C   192 -- C   497       -0.09      5.37202
 C   191 -- C   536       -0.09      5.37202
 C   191 -- C   496       -0.09      5.37202
 C   180 -- C   515       -0.09      5.37202
 C   179 -- C   514       -0.09      5.37202
 C   178 -- C   513       -0.09      5.37202
 C   177 -- C   512       -0.09      5.37202
 C   176 -- C   511       -0.09      5.37202
 C    11 -- C   331       -0.09      5.37202
 C   205 -- C   550       -0.09      5.37202
 C   204 -- C   549       -0.09      5.37202
 C   203 -- C   548       -0.09      5.37202
 C   202 -- C   547       -0.09      5.37202
 C   201 -- C   546       -0.09      5.37202
 C    95 -- C   425       -0.09      5.37202
 C    95 -- C   365       -0.09      5.37202
 C    94 -- C   424       -0.09      5.37202
 C    94 -- C   364       -0.09      5.37202
 C    93 -- C   423       -0.09      5.37202
 C    93 -- C   363       -0.09      5.37202
 C    92 -- C   422       -0.09      5.37202
 C    92 -- C   362       -0.09      5.37202
 C    91 -- C   421       -0.09      5.37202
 C    91 -- C   361       -0.09      5.37202
 C    40 -- C   365       -0.09      5.37202
 C    39 -- C   364       -0.09      5.37202
 C    38 -- C   363       -0.09      5.37202
 C    37 -- C   362       -0.09      5.37202
 C    36 -- C   361       -0.09      5.37202
 C    15 -- C   335       -0.09      5.37202
 C    65 -- C   395       -0.09      5.37202
 C    65 -- C   345       -0.09      5.37202
 C    64 -- C   394       -0.09      5.37202
 C    64 -- C   344       -0.09      5.37202
 C    63 -- C   393       -0.09      5.37202
 C    30 -- C   355       -0.09      5.37202
 C    63 -- C   343       -0.09      5.37202
 C    62 -- C   392       -0.09      5.37202
 C    30 -- C   325       -0.09      5.37202
 C    14 -- C   334       -0.09      5.37202
 C    62 -- C   342       -0.09      5.37202
 C    61 -- C   391       -0.09      5.37202
 C    29 -- C   354       -0.09      5.37202
 C    61 -- C   341       -0.09      5.37202
 C    29 -- C   324       -0.09      5.37202
 C   260 -- C   550       -0.09      5.37202
 C   259 -- C   549       -0.09      5.37202
 C    28 -- C   353       -0.09      5.37202
 C   258 -- C   548       -0.09      5.37202
 C   257 -- C   547       -0.09      5.37202
 C   256 -- C   546       -0.09      5.37202
 C    28 -- C   323       -0.09      5.37202
 C    27 -- C   352       -0.09      5.37202
 C    13 -- C   333       -0.09      5.37202
 C    27 -- C   322       -0.09      5.37202
 C   120 -- C   395       -0.09      5.37202
 C    26 -- C   351       -0.09      5.37202
 C   119 -- C   394       -0.09      5.37202
 C   118 -- C   393       -0.09      5.37202
 C    55 -- C   335       -0.09      5.37202
 C   117 -- C   392       -0.09      5.37202
 C    26 -- C   321       -0.09      5.37202
 C   116 -- C   391       -0.09      5.37202
 C    54 -- C   334       -0.09      5.37202
 C    12 -- C   332       -0.09      5.37202
 C    53 -- C   333       -0.09      5.37202
 C   230 -- C   580       -0.09      5.37202
 C   230 -- C   525       -0.09      5.37202
 C   229 -- C   579       -0.09      5.37202
 C   229 -- C   524       -0.09      5.37202
 C   228 -- C   578       -0.09      5.37202
 C    52 -- C   332       -0.09      5.37202
 C   228 -- C   523       -0.09      5.37202
 C   227 -- C   577       -0.09      5.37202
 C   227 -- C   522       -0.09      5.37202
 C   226 -- C   576       -0.09      5.37202
 C   226 -- C   521       -0.09      5.37202
 C    51 -- C   331       -0.09      5.37202
 C    23 -- C   478       -0.09      5.37202
 C    49 -- C   469       -0.09      5.37202
 C    48 -- C   468       -0.09      5.37202
 C    47 -- C   467       -0.09      5.37202
 C    22 -- C   477       -0.09      5.37202
 C    46 -- C   466       -0.09      5.37202
 C    21 -- C   476       -0.09      5.37202
 C    85 -- C   355       -0.09      5.37202
 C    84 -- C   354       -0.09      5.37202
 C    83 -- C   353       -0.09      5.37202
 C    82 -- C   352       -0.09      5.37202
 C    81 -- C   351       -0.09      5.37202
 C    55 -- C   385       -0.09      5.37202
 C    54 -- C   384       -0.09      5.37202
 C    25 -- C   480       -0.09      5.37202
 C    53 -- C   383       -0.09      5.37202
 C    52 -- C   382       -0.09      5.37202
 C    51 -- C   381       -0.09      5.37202
 C    24 -- C   479       -0.09      5.37202
 C    50 -- C   470       -0.09      5.37202
 C    24 -- C   449       -0.09      5.37202
 C     6 -- C   416       -0.09      5.37202
 C    23 -- C   448       -0.09      5.37202
 C    22 -- C   447       -0.09      5.37202
 C    10 -- C   470       -0.09      5.37202
 C     5 -- C   450       -0.09      5.37202
 C    21 -- C   446       -0.09      5.37202
 C    10 -- C   420       -0.09      5.37202
 C     9 -- C   469       -0.09      5.37202
 C     9 -- C   419       -0.09      5.37202
 C     8 -- C   468       -0.09      5.37202
 C     4 -- C   449       -0.09      5.37202
 C   150 -- C   440       -0.09      5.37202
 C   149 -- C   439       -0.09      5.37202
 C   148 -- C   438       -0.09      5.37202
 C   147 -- C   437       -0.09      5.37202
 C     8 -- C   418       -0.09      5.37202
 C   146 -- C   436       -0.09      5.37202
 C     2 -- C   447       -0.09      5.37202
 C   135 -- C   460       -0.09      5.37202
 C     7 -- C   467       -0.09      5.37202
 C   134 -- C   459       -0.09      5.37202
 C   133 -- C   458       -0.09      5.37202
 C   132 -- C   457       -0.09      5.37202
 C   131 -- C   456       -0.09      5.37202
 C     7 -- C   417       -0.09      5.37202
 C     1 -- C   446       -0.09      5.37202
 C     6 -- C   466       -0.09      5.37202
 C    25 -- C   450       -0.09      5.37202
 C     3 -- C   448       -0.09      5.37202
 C   106 -- C   436       -0.09      5.37202
 C   106 -- C   376       -0.09      5.37202
 C    80 -- C   410       -0.09      5.37202
 C    79 -- C   409       -0.09      5.37202
 C    78 -- C   408       -0.09      5.37202
 C    77 -- C   407       -0.09      5.37202
 C    76 -- C   406       -0.09      5.37202
 C   135 -- C   410       -0.09      5.37202
 C   134 -- C   409       -0.09      5.37202
 C   133 -- C   408       -0.09      5.37202
 C   132 -- C   407       -0.09      5.37202
 C   131 -- C   406       -0.09      5.37202
 C   110 -- C   440       -0.09      5.37202
 C   110 -- C   380       -0.09      5.37202
 C   109 -- C   439       -0.09      5.37202
 C   109 -- C   379       -0.09      5.37202
 C   108 -- C   438       -0.09      5.37202
 C   108 -- C   378       -0.09      5.37202
 C   107 -- C   437       -0.09      5.37202
 C   107 -- C   377       -0.09      5.37202
 C   215 -- C   635       -0.09      5.38000
 C   214 -- C   634       -0.09      5.38000
 C   213 -- C   633       -0.09      5.38000
 C   212 -- C   632       -0.09      5.38000
 C   211 -- C   631       -0.09      5.38000
 C   190 -- C   620       -0.09      5.38000
 C   189 -- C   619       -0.09      5.38000
 C   188 -- C   618       -0.09      5.38000
 C   187 -- C   617       -0.09      5.38000
 C   186 -- C   616       -0.09      5.38000
 C   175 -- C   595       -0.09      5.38000
 C   174 -- C   594       -0.09      5.38000
 C   173 -- C   593       -0.09      5.38000
 C   172 -- C   592       -0.09      5.38000
 C   171 -- C   591       -0.09      5.38000
 C   245 -- C   640       -0.09      5.38000
 C   244 -- C   639       -0.09      5.38000
 C   243 -- C   638       -0.09      5.38000
 C   242 -- C   637       -0.09      5.38000
 C   241 -- C   636       -0.09      5.38000
==================================================


=================== Orbital energy and occupancy information ===================

      Total number of orbitals:    2560
        Occupancy sum (kernel):    1279.999999999
   Occupancy sum (eigenvalues):    1279.999999999
                 HOMO-LUMO gap:       0.066314925 Eh
                 Mid-gap level:       0.213619165 Eh

                        Orbital | Energy (Eh) | Occupancy
                            1    -0.504285694   1.0000000
                        .......   ...........   .........
                         1271     0.176271423   0.9999884
                         1272     0.176280574   0.9999883
                         1273     0.176740067   0.9999865
                         1274     0.176749205   0.9999865
                         1275     0.179079378   0.9999717
                         1276     0.179082298   0.9999717
                         1277     0.179546250   0.9999673
                         1278     0.179549118   0.9999672
                         1279     0.179997296   0.9999622
                         1280     0.180461703   0.9999563
                        ....... -- gap at 0K -- .........
                         1281     0.246776628   0.0000182
                         1282     0.246787082   0.0000181
                         1283     0.247032650   0.0000168
                         1284     0.247043218   0.0000167
                         1285     0.247100041   0.0000165
                         1286     0.247106031   0.0000165
                         1287     0.247338585   0.0000153
                         1288     0.247366221   0.0000152
                         1289     0.247372243   0.0000151
                         1290     0.247453060   0.0000147
                        .......   ...........   .........
                         2560     1.093182717   0.0000000

================================================================================

===================== Writing canonical molecular orbitals =====================
| Orbital  Energy (eV)  Norm     |
| HOMO      4.91061280  1.000000 | Writing "3.756468_GO_manual_4x64graphite_HOMO.cube" ... done
Writing "3.756468_GO_manual_4x64graphite_HOMO.dx" ... done
| LUMO      6.71513372  1.000000 | Writing "3.756468_GO_manual_4x64graphite_LUMO.cube" ... done
Writing "3.756468_GO_manual_4x64graphite_LUMO.dx" ... done
================================================================================
 
===================== Density of States (DOS) calculation ======================
Writing "3.756468_GO_manual_4x64graphite_DOS.txt" ...  done
================================================================================
 
Writing bands to file "3.756468_GO_manual_4x64graphite.val_bands" ... done
 
================ Projected Density of States (pDOS) calculation ================
 
Constructing AM resolved functions  ...... done
Writing NGWF plot files in formats: CUBE DX ...  done
 
Performing overlap integrals ...  done
 
Computing pDOS weights ...  done
 
All bands spilling parameter =   3.10 %
Occupancy-weighted spilling parameter =   0.97 %
 
 => Outputting data for OptaDOS <=
 
Writing pDOS weights to file "3.756468_GO_manual_4x64graphite.val_pdos_bin" ... done
 
Writing band gradients to file "3.756468_GO_manual_4x64graphite.val_dome_bin" ... done
 
Writing Castep output cell file to "3.756468_GO_manual_4x64graphite-out.cell" ... done
 
 => Computing Gaussian smeared pDOS <= 
Writing "3.756468_GO_manual_4x64graphite_PDOS.txt" ...  done
 
 => Computing Occupancy-weighted Gaussian smeared pDOS <= 
Writing "3.756468_GO_manual_4x64graphite_occ_PDOS.txt" ...  done
  => Band centres: 
 S band centre of group 1:  -13.796699 eV
 P band centre of group 1:   -6.684539 eV
  Band centres done. <=
  => Integrated number of electrons in each AM band: 
 S num electrons of group 1:  574.360133
 P num electrons of group 1: 1960.797730
  Integrated number of electrons done. <=
================================================================================

------------------------------ TIMING INFORMATION ------------------------------
AVERAGE TIME:    3278.751s on     40 node(s)                                    
TOTAL TIME:      3278.752s on     40 node(s)                                    
================= AVERAGE TIMINGS FROM ALL NODES (CUMULATIVE) ==================
|| TAG                                    #calls    cpu time   %total  Gflops ||
|| work_imbalance                       :     1        0.00s   0.000%  ------ ||
|| paw_tcore_hartree_on_grid            :     1        0.00s   0.000%  ------ ||
|| paw_tcore_density                    :     1        0.01s   0.000%  ------ ||
|| paw_sphere_density_on_grid           :     1        0.01s   0.000%  ------ ||
|| sparse_set_to_garbage                :   147        0.02s   0.001%  ------ ||
|| paw_dij_hartree                      :   303        0.04s   0.001%  ------ ||
|| pseudo_make_structure_factor         :     1        0.06s   0.002%  ------ ||
|| basis_extract_function_from_box      :  1664        0.07s   0.002%  ------ ||
|| paw_species_calc_proj_prec_mat       :     1        0.13s   0.004%  ------ ||
|| paw_dataset_init                     :     1        0.16s   0.005%  ------ ||
|| density_init_guess_real              :     1        0.17s   0.005%  ------ ||
|| ngwfs_initialise_from_radial         :     2        0.66s   0.020%  ------ ||
|| restart_kernel_write                 :    14        0.79s   0.024%  ------ ||
|| sparse_init                          :     1        0.95s   0.029%  ------ ||
|| dense_normal_eigensolve              :     1        1.00s   0.031%  ------ ||
|| hartree_on_grid                      :   228        1.27s   0.039%  ------ ||
|| projectors_init_fftbox_recip         :   131        2.53s   0.077%  ------ ||
|| ewald_calculate_energy               :     1        3.26s   0.099%  ------ ||
|| fourier_apply_box_pair               :  2464        4.08s   0.124% 560.330 ||
|| basis_copy_function_to_box           : 21632        4.68s   0.143%  ------ ||
|| augmentation_screen_dij              :   233        5.16s   0.157%  ------ ||
|| sw_init                              :     1        6.73s   0.205%  ------ ||
|| sparse_embed_hotelling_invert_embed  :    25        7.05s   0.215%  ------ ||
|| ngwf_gradient_coeffs                 :    13        9.56s   0.291%  ------ ||
|| sparse_trace                         :  2744       12.51s   0.381%  ------ ||
|| cell_grid_extract_box_real           :  9116       13.21s   0.403%  ------ ||
|| fourier_apply_cell_backward          :  7039       13.97s   0.426%  66.776 ||
|| fourier_apply_cell_forward           :  6584       14.21s   0.434%  61.375 ||
|| cell_grid_deposit_box_real           : 29360       18.05s   0.551%  ------ ||
|| paw_dij_xc                           :   303       28.17s   0.859%  ------ ||
|| density_fftbox_deposit_to_cell       : 14592       35.73s   1.090%  ------ ||
|| aug_nonlocal_mat                     :   290       37.38s   1.140%  ------ ||
|| augmentation_density_on_grid         :   228       40.97s   1.250%  ------ ||
|| hamiltonian_energy_components        :     3       46.17s   1.408%  ------ ||
|| function_ops_brappd_ketppd           :    52       47.21s   1.440%  ------ ||
|| eigenstates_pdos                     :     1       47.69s   1.455%  ------ ||
|| eigenstates_calculate                :     1       51.62s   1.574%  ------ ||
|| projectors_func_ovlp_box             :    26       57.90s   1.766%  ------ ||
|| nlxc_vdw_energy                      :   454       59.65s   1.819%  ------ ||
|| xc_energy_potential                  :   227       67.39s   2.055%  ------ ||
|| integrals_kinetic                    :    25       79.97s   2.439%  ------ ||
|| properties_calculate                 :     1       92.87s   2.833%  ------ ||
|| dense_eigensolve                     :   199      103.59s   3.160%  ------ ||
|| potential_apply_to_ngwf_batch        :   284      109.98s   3.354%  ------ ||
|| sparse_product                       :  2781      112.00s   3.416%  ------ ||
|| restart_ngwfs_tightbox_output        :    12      125.95s   3.841%  ------ ||
|| basis_dot_function_with_box          : 6.640M     181.90s   5.548%  ------ ||
|| fourier_apply_box                    : 68224      211.59s   6.453% 978.941 ||
|| edft_diag_ngwf_ham                   :   198      225.52s   6.878%  ------ ||
|| integrals_locpot_mat_els_batch       :   284      234.47s   7.151%  ------ ||
|| projectors_gradient_batch            :    52      235.78s   7.191%  ------ ||
|| density_fftbox_interpolate_multiply  : 14592      282.94s   8.630%  ------ ||
|| projectors_grad_precond_batch        :    52      323.41s   9.864%  ------ ||
|| integrals_locpot_dbl_grid            :    71      345.68s  10.543%  ------ ||
|| density_batch_interp_deposit         :   912      352.34s  10.746%  ------ ||
|| edft_apply_smearing_operator         :   198      433.46s  13.220%  ------ ||
|| basis_add_function_to_box            : 18.78M     496.51s  15.143%  ------ ||
|| ngwf_gradient_build_batch            :    52      598.46s  18.253%  ------ ||
|| density_batch_row_sums               :   912      670.60s  20.453%  ------ ||
|| ngwf_gradient_batch                  :    52      788.37s  24.045%  ------ ||
|| ngwf_gradient_lnv                    :    13      817.29s  24.927%  ------ ||
|| density_on_dbl_grid                  :   228     1036.27s  31.606%  ------ ||
|| hamiltonian_lhxc_calculate           :   223     1123.64s  34.270%  ------ ||
|| edft_calculate                       :    13     1894.49s  57.781%  ------ ||
|| ngwf_cg_optimise                     :     1     3160.50s  96.393%  ------ ||
|| total_time                           :     1     3278.75s 100.000%  ------ ||
================================================================================
Overhead of generating timer report: 
- 0 ms averaging over threads,
- 5 ms ensuring consistency across MPI ranks,
- 0 ms printing in order.

Job completed: 29-02-2020 13:08 (-0000)

