 +---------------------------------------------------------------+
 |                                                               |
 |        ####### #     # ####### ####### ####### ######         |
 |        #     # ##    # #          #    #       #     #        |
 |        #     # # #   # #          #    #       #     #        |
 |        #     # #  #  # #####      #    #####   ######         |
 |        #     # #   # # #          #    #       #              |
 |        #     # #    ## #          #    #       #              |
 |        ####### #     # #######    #    ####### #              |
 |                                                               |
 |        Linear-Scaling Ab Initio Total Energy Program          |
 |                                                               |
 |          Release for academic collaborators of ODG            |
 |                                             Version 5.3.2.12  |
 |                                                               |
 +---------------------------------------------------------------+
 |                                                               |
 |  Authors:                                                     |
 |  Jacek Dziedzic, Peter D. Haynes, Nicholas D. M. Hine,        |
 |  Arash. A. Mostofi, Mike C. Payne and Chris-Kriton Skylaris   |
 |                                                               |
 |  Contributors:                                                |
 |  J. Aarons, L. Andrinopoulos, P. W. Avraam, R. A. Bell,       |
 |  A. Bhandari, G. A. Bramley, R. J. Charlton, S. J. Clark,     |
 |  R. J. Clements, G. C. Constantinescu, F. Corsetti,           |
 |  N. Corsini, O. Dieguez, S. M. M. Dubois, K. K. B. Duff,      |
 |  J. M. Escartin, A. Greco, H. Helal, Q. O. Hill, L. P. Lee,   |
 |  J.-H. Li, E. B. Linscott, G. Moynihan, D. D. O`Regan,        |
 |  O. K. Okan, M. J. S. Phipps, C. J. Pickard,                  |
 |  J. C. A. Prentice, M. I. J. Probert, L. E. Ratcliff,         |
 |  M. Robinson, A. Ruiz Serrano, J. S. Spencer, E. W. Tait,     |
 |  G. Teobaldi, D. Turban, V. Vitale, K. A. Wilkinson,          |
 |  C. Weber, J. C. Womack, N. Yeung and T. J. Zuehlsdorff       |
 |                                                               |
 |                                   Copyright (c) 2004-2020     |
 |                                                               |
 |  Please cite:                                                 |
 |  "Introducing ONETEP: Linear-scaling density functional       |
 |   simulations on parallel computers".                         |
 |   C.-K. Skylaris, P. D. Haynes, A. A. Mostofi, M. C. Payne.   |
 |   J. Chem. Phys. 122 084119 (2005).                           |
 |                                                               |
 |          in all publications arising from your use of ONETEP. |
 |                                                               |
 +---------------------------------------------------------------+
 |                                                               |
 |   ONETEP is based on developments described in the following  |
 |   publications:                                               |
 |                                                               |
 |  "Nonorthogonal generalized Wannier function pseudopotential  |
 |   plane-wave method".                                         |
 |   C.-K. Skylaris, A. A. Mostofi, P. D. Haynes, O. Dieguez,    |
 |   M. C. Payne.                                                |
 |   Phys. Rev. B 66 035119 (2002).                              |
 |                                                               |
 |  "Preconditioned iterative minimization for linear-scaling    |
 |   electronic structure calculations".                         |
 |   A. A. Mostofi, P. D. Haynes, C.-K. Skylaris, M. C. Payne.   |
 |   J. Chem. Phys. 119(17), pp.8842-8848 (2003).                |
 |                                                               |
 |  "Total-energy calculations on a real space grid with         |
 |   localized functions and a plane-wave basis".                |
 |   A. A. Mostofi, C.-K. Skylaris, P. D. Haynes, M. C. Payne.   |
 |   Comput. Phys. Commun. 147, pp.788-802 (2002).               |
 |                                                               |
 |  "Accurate kinetic energy evaluation in electronic structure  |
 |   calculations with localized functions on real space grids"  |
 |   C.-K. Skylaris, A. A. Mostofi, P. D. Haynes, C. J. Pickard, |
 |   M. C. Payne.                                                |
 |   Comput. Phys. Commun. 140, pp.315-322 (2001).               |
 |                                                               |
 |  "Accurate ionic forces and geometry optimization in linear-  |
 |   scaling density-functional theory with local orbitals"      |
 |   N. D. M. Hine, M. Robinson, P. D. Haynes, C.-K. Skylaris,   |
 |   M. C. Payne, and A. A. Mostofi.                             |
 |   Phys. Rev. B 83 195102 (2011).                              |
 |                                                               |
 +---------------------------------------------------------------+

Job started: 29-02-2020 11:31 (-0000)
 
Reading parameters from file "3.8101304_GO_manual_4x64graphite.dat" ...

WARNING: "cutoff_energy" not specified, but "psinc_spacing" specified.
         Using the latter to set the KE cutoff energy to  732.32021eV,
         thus *overriding* the default.

... done

If your calculation crashes here, before "Checking processes and threads..."
is displayed, then your stack size is insufficient.
If so, use "ulimit -s unlimited" at runtime.
You can disable this check with "check_stack_size F".

Checking processes and threads...
   Determining the default number of threads...
      No default threads set at compilation time: defaulting to 1.
      OpenMP library call suggests 4 threads.
      Hybrid MPI-OpenMP compilation detected.
      Number of MPI processes > 1.
      OMP_NUM_THREADS environment variable present and
      its value matches the one obtained from the OpenMP library call.
      Using this value as default.
      Default threads: 4
      Default applies to threads_max and threads_num_fftboxes.
      Settings in the input file override this default.
   ... done

   Running with 40 MPI processes.
   There are 10 MPI processes running on the same node as the root process.
   Each MPI process is using: 
               1 threads for simulation cell FFTs.
               1 threads for parallel FFT box operations.
               4 threads for loops over batched FFT box operations.
               4 threads in other parallel regions.
... done

Basic input checks...
Resetting ngwf_cg_rotate to TRUE for EDFT calculations
... done

Reading geometry and species blocks from file "3.8101304_GO_manual_4x64graphite.dat" ...
    
  PSINC grid spacing along a1 set to   0.511215680000a0 from input file.
  PSINC grid spacing along a2 set to   0.531284090000a0 from input file.
  PSINC grid spacing along a3 set to   0.507050540000a0 from input file.
  Number of PPD points along a3 set to 1.  This is 
  the default value, it may have been provided also in the input file.
... done
 Writing xyz coordinates to file "3.8101304_GO_manual_4x64graphite.xyz" ... done


--------------------------------------------------------------------------------
---------------------------------- INPUT FILE ----------------------------------
--------------------------------------------------------------------------------

task : singlepoint                                                              
do_properties : true                                                            
dx_format T                                                                     
edft T                                                                          
output_detail VERBOSE                                                           
write_xyz T                                                                     
xc_functional VDWDF2                                                            
PSINC_SPACING 0.51121568 0.53128409 0.50705054                                  
paw T                                                                           
pdos_max_l = 2                                                                  
dos_smear  0.1 eV                                                               
popn_calculate T                                                                
PDOS_PSEUDOATOMIC T                                                             
PDOS_REDUCE_SWS F                                                               
PDOS_CONSTRUCT_BASIS F                                                          
PDOS_LOWDIN T                                                                   
PDOS_ORTH_ATOM_BLOCKS F                                                         
PDOS_LCAO_OPTIMIZE F                                                            
pdos_optados_output T                                                           
homo_plot 0                                                                     
lumo_plot 0                                                                     
homo_dens_plot -1                                                               
lumo_dens_plot -1                                                               
%BLOCK SPECIES                                                                  
C C 6 4 9.0                                                                     
%ENDBLOCK SPECIES                                                               
%BLOCK SPECIES_POT                                                              
C "~/pp/paw/c_pbe_abinit.paw"                                                   
%ENDBLOCK SPECIES_POT                                                           
%BLOCK SPECIES_ATOMIC_SET                                                       
C "SOLVE conf=2s2 2p2"                                                          
%ENDBLOCK SPECIES_ATOMIC_SET                                                    
%BLOCK LATTICE_CART                                                             
32.21  0.00  0.00                                                               
0.00 18.59  0.00                                                                
0.00  0.00 72.00                                                                
%ENDBLOCK LATTICE_CART                                                          
%BLOCK POSITIONS_ABS                                                            
C  0.00  0.00  3.60                                                             
C  0.00  0.00 18.00                                                             
C  0.00  0.00 32.40                                                             
C  0.00  0.00 46.80                                                             
C  0.00  0.00 61.20                                                             
C  0.00  4.65  3.60                                                             
C  0.00  4.65 18.00                                                             
C  0.00  4.65 32.40                                                             
C  0.00  4.65 46.80                                                             
C  0.00  4.65 61.20                                                             
C  4.03  2.32  3.60                                                             
C  4.03  2.32 18.00                                                             
C  4.03  2.32 32.40                                                             
C  4.03  2.32 46.80                                                             
C  4.03  2.32 61.20                                                             
C  8.05  0.00  3.60                                                             
C  8.05  0.00 18.00                                                             
C  8.05  0.00 32.40                                                             
C  8.05  0.00 46.80                                                             
C  8.05  0.00 61.20                                                             
C  0.00  9.30  3.60                                                             
C  0.00  9.30 18.00                                                             
C  0.00  9.30 32.40                                                             
C  0.00  9.30 46.80                                                             
C  0.00  9.30 61.20                                                             
C  4.03  6.97  3.60                                                             
C  4.03  6.97 18.00                                                             
C  4.03  6.97 32.40                                                             
C  4.03  6.97 46.80                                                             
C  4.03  6.97 61.20                                                             
C  8.05  4.65  3.60                                                             
C  8.05  4.65 18.00                                                             
C  8.05  4.65 32.40                                                             
C  8.05  4.65 46.80                                                             
C  8.05  4.65 61.20                                                             
C 12.08  2.32  3.60                                                             
C 12.08  2.32 18.00                                                             
C 12.08  2.32 32.40                                                             
C 12.08  2.32 46.80                                                             
C 12.08  2.32 61.20                                                             
C 16.10  0.00  3.60                                                             
C 16.10  0.00 18.00                                                             
C 16.10  0.00 32.40                                                             
C 16.10  0.00 46.80                                                             
C 16.10  0.00 61.20                                                             
C  0.00 13.95  3.60                                                             
C  0.00 13.95 18.00                                                             
C  0.00 13.95 32.40                                                             
C  0.00 13.95 46.80                                                             
C  0.00 13.95 61.20                                                             
C  4.03 11.62  3.60                                                             
C  4.03 11.62 18.00                                                             
C  4.03 11.62 32.40                                                             
C  4.03 11.62 46.80                                                             
C  4.03 11.62 61.20                                                             
C  8.05  9.30  3.60                                                             
C  8.05  9.30 18.00                                                             
C  8.05  9.30 32.40                                                             
C  8.05  9.30 46.80                                                             
C  8.05  9.30 61.20                                                             
C 12.08  6.97  3.60                                                             
C 12.08  6.97 18.00                                                             
C 12.08  6.97 32.40                                                             
C 12.08  6.97 46.80                                                             
C 12.08  6.97 61.20                                                             
C 16.10  4.65  3.60                                                             
C 16.10  4.65 18.00                                                             
C 16.10  4.65 32.40                                                             
C 16.10  4.65 46.80                                                             
C 16.10  4.65 61.20                                                             
C 20.13  2.32  3.60                                                             
C 20.13  2.32 18.00                                                             
C 20.13  2.32 32.40                                                             
C 20.13  2.32 46.80                                                             
C 20.13  2.32 61.20                                                             
C 24.16  0.00  3.60                                                             
C 24.16  0.00 18.00                                                             
C 24.16  0.00 32.40                                                             
C 24.16  0.00 46.80                                                             
C 24.16  0.00 61.20                                                             
C  4.03 16.27  3.60                                                             
C  4.03 16.27 18.00                                                             
C  4.03 16.27 32.40                                                             
C  4.03 16.27 46.80                                                             
C  4.03 16.27 61.20                                                             
C  8.05 13.95  3.60                                                             
C  8.05 13.95 18.00                                                             
C  8.05 13.95 32.40                                                             
C  8.05 13.95 46.80                                                             
C  8.05 13.95 61.20                                                             
C 12.08 11.62  3.60                                                             
C 12.08 11.62 18.00                                                             
C 12.08 11.62 32.40                                                             
C 12.08 11.62 46.80                                                             
C 12.08 11.62 61.20                                                             
C 16.10  9.30  3.60                                                             
C 16.10  9.30 18.00                                                             
C 16.10  9.30 32.40                                                             
C 16.10  9.30 46.80                                                             
C 16.10  9.30 61.20                                                             
C 20.13  6.97  3.60                                                             
C 20.13  6.97 18.00                                                             
C 20.13  6.97 32.40                                                             
C 20.13  6.97 46.80                                                             
C 20.13  6.97 61.20                                                             
C 24.16  4.65  3.60                                                             
C 24.16  4.65 18.00                                                             
C 24.16  4.65 32.40                                                             
C 24.16  4.65 46.80                                                             
C 24.16  4.65 61.20                                                             
C 28.18  2.32  3.60                                                             
C 28.18  2.32 18.00                                                             
C 28.18  2.32 32.40                                                             
C 28.18  2.32 46.80                                                             
C 28.18  2.32 61.20                                                             
C 12.08 16.27  3.60                                                             
C 12.08 16.27 18.00                                                             
C 12.08 16.27 32.40                                                             
C 12.08 16.27 46.80                                                             
C 12.08 16.27 61.20                                                             
C 16.10 13.95  3.60                                                             
C 16.10 13.95 18.00                                                             
C 16.10 13.95 32.40                                                             
C 16.10 13.95 46.80                                                             
C 16.10 13.95 61.20                                                             
C 20.13 11.62  3.60                                                             
C 20.13 11.62 18.00                                                             
C 20.13 11.62 32.40                                                             
C 20.13 11.62 46.80                                                             
C 20.13 11.62 61.20                                                             
C 24.16  9.30  3.60                                                             
C 24.16  9.30 18.00                                                             
C 24.16  9.30 32.40                                                             
C 24.16  9.30 46.80                                                             
C 24.16  9.30 61.20                                                             
C 28.18  6.97  3.60                                                             
C 28.18  6.97 18.00                                                             
C 28.18  6.97 32.40                                                             
C 28.18  6.97 46.80                                                             
C 28.18  6.97 61.20                                                             
C 20.13 16.27  3.60                                                             
C 20.13 16.27 18.00                                                             
C 20.13 16.27 32.40                                                             
C 20.13 16.27 46.80                                                             
C 20.13 16.27 61.20                                                             
C 24.16 13.95  3.60                                                             
C 24.16 13.95 18.00                                                             
C 24.16 13.95 32.40                                                             
C 24.16 13.95 46.80                                                             
C 24.16 13.95 61.20                                                             
C 28.18 11.62  3.60                                                             
C 28.18 11.62 18.00                                                             
C 28.18 11.62 32.40                                                             
C 28.18 11.62 46.80                                                             
C 28.18 11.62 61.20                                                             
C 28.18 16.27  3.60                                                             
C 28.18 16.27 18.00                                                             
C 28.18 16.27 32.40                                                             
C 28.18 16.27 46.80                                                             
C 28.18 16.27 61.20                                                             
C  0.00  0.00 10.80                                                             
C  0.00  0.00 25.20                                                             
C  0.00  0.00 39.60                                                             
C  0.00  0.00 54.00                                                             
C  0.00  0.00 68.40                                                             
C  0.00  4.65 10.80                                                             
C  0.00  4.65 25.20                                                             
C  0.00  4.65 39.60                                                             
C  0.00  4.65 54.00                                                             
C  0.00  4.65 68.40                                                             
C  4.03  2.32 10.80                                                             
C  4.03  2.32 25.20                                                             
C  4.03  2.32 39.60                                                             
C  4.03  2.32 54.00                                                             
C  4.03  2.32 68.40                                                             
C  8.05  0.00 10.80                                                             
C  8.05  0.00 25.20                                                             
C  8.05  0.00 39.60                                                             
C  8.05  0.00 54.00                                                             
C  8.05  0.00 68.40                                                             
C  0.00  9.30 10.80                                                             
C  0.00  9.30 25.20                                                             
C  0.00  9.30 39.60                                                             
C  0.00  9.30 54.00                                                             
C  0.00  9.30 68.40                                                             
C  4.03  6.97 10.80                                                             
C  4.03  6.97 25.20                                                             
C  4.03  6.97 39.60                                                             
C  4.03  6.97 54.00                                                             
C  4.03  6.97 68.40                                                             
C  8.05  4.65 10.80                                                             
C  8.05  4.65 25.20                                                             
C  8.05  4.65 39.60                                                             
C  8.05  4.65 54.00                                                             
C  8.05  4.65 68.40                                                             
C 12.08  2.32 10.80                                                             
C 12.08  2.32 25.20                                                             
C 12.08  2.32 39.60                                                             
C 12.08  2.32 54.00                                                             
C 12.08  2.32 68.40                                                             
C 16.10  0.00 10.80                                                             
C 16.10  0.00 25.20                                                             
C 16.10  0.00 39.60                                                             
C 16.10  0.00 54.00                                                             
C 16.10  0.00 68.40                                                             
C  0.00 13.95 10.80                                                             
C  0.00 13.95 25.20                                                             
C  0.00 13.95 39.60                                                             
C  0.00 13.95 54.00                                                             
C  0.00 13.95 68.40                                                             
C  4.03 11.62 10.80                                                             
C  4.03 11.62 25.20                                                             
C  4.03 11.62 39.60                                                             
C  4.03 11.62 54.00                                                             
C  4.03 11.62 68.40                                                             
C  8.05  9.30 10.80                                                             
C  8.05  9.30 25.20                                                             
C  8.05  9.30 39.60                                                             
C  8.05  9.30 54.00                                                             
C  8.05  9.30 68.40                                                             
C 12.08  6.97 10.80                                                             
C 12.08  6.97 25.20                                                             
C 12.08  6.97 39.60                                                             
C 12.08  6.97 54.00                                                             
C 12.08  6.97 68.40                                                             
C 16.10  4.65 10.80                                                             
C 16.10  4.65 25.20                                                             
C 16.10  4.65 39.60                                                             
C 16.10  4.65 54.00                                                             
C 16.10  4.65 68.40                                                             
C 20.13  2.32 10.80                                                             
C 20.13  2.32 25.20                                                             
C 20.13  2.32 39.60                                                             
C 20.13  2.32 54.00                                                             
C 20.13  2.32 68.40                                                             
C 24.16  0.00 10.80                                                             
C 24.16  0.00 25.20                                                             
C 24.16  0.00 39.60                                                             
C 24.16  0.00 54.00                                                             
C 24.16  0.00 68.40                                                             
C  4.03 16.27 10.80                                                             
C  4.03 16.27 25.20                                                             
C  4.03 16.27 39.60                                                             
C  4.03 16.27 54.00                                                             
C  4.03 16.27 68.40                                                             
C  8.05 13.95 10.80                                                             
C  8.05 13.95 25.20                                                             
C  8.05 13.95 39.60                                                             
C  8.05 13.95 54.00                                                             
C  8.05 13.95 68.40                                                             
C 12.08 11.62 10.80                                                             
C 12.08 11.62 25.20                                                             
C 12.08 11.62 39.60                                                             
C 12.08 11.62 54.00                                                             
C 12.08 11.62 68.40                                                             
C 16.10  9.30 10.80                                                             
C 16.10  9.30 25.20                                                             
C 16.10  9.30 39.60                                                             
C 16.10  9.30 54.00                                                             
C 16.10  9.30 68.40                                                             
C 20.13  6.97 10.80                                                             
C 20.13  6.97 25.20                                                             
C 20.13  6.97 39.60                                                             
C 20.13  6.97 54.00                                                             
C 20.13  6.97 68.40                                                             
C 24.16  4.65 10.80                                                             
C 24.16  4.65 25.20                                                             
C 24.16  4.65 39.60                                                             
C 24.16  4.65 54.00                                                             
C 24.16  4.65 68.40                                                             
C 28.18  2.32 10.80                                                             
C 28.18  2.32 25.20                                                             
C 28.18  2.32 39.60                                                             
C 28.18  2.32 54.00                                                             
C 28.18  2.32 68.40                                                             
C 12.08 16.27 10.80                                                             
C 12.08 16.27 25.20                                                             
C 12.08 16.27 39.60                                                             
C 12.08 16.27 54.00                                                             
C 12.08 16.27 68.40                                                             
C 16.10 13.95 10.80                                                             
C 16.10 13.95 25.20                                                             
C 16.10 13.95 39.60                                                             
C 16.10 13.95 54.00                                                             
C 16.10 13.95 68.40                                                             
C 20.13 11.62 10.80                                                             
C 20.13 11.62 25.20                                                             
C 20.13 11.62 39.60                                                             
C 20.13 11.62 54.00                                                             
C 20.13 11.62 68.40                                                             
C 24.16  9.30 10.80                                                             
C 24.16  9.30 25.20                                                             
C 24.16  9.30 39.60                                                             
C 24.16  9.30 54.00                                                             
C 24.16  9.30 68.40                                                             
C 28.18  6.97 10.80                                                             
C 28.18  6.97 25.20                                                             
C 28.18  6.97 39.60                                                             
C 28.18  6.97 54.00                                                             
C 28.18  6.97 68.40                                                             
C 20.13 16.27 10.80                                                             
C 20.13 16.27 25.20                                                             
C 20.13 16.27 39.60                                                             
C 20.13 16.27 54.00                                                             
C 20.13 16.27 68.40                                                             
C 24.16 13.95 10.80                                                             
C 24.16 13.95 25.20                                                             
C 24.16 13.95 39.60                                                             
C 24.16 13.95 54.00                                                             
C 24.16 13.95 68.40                                                             
C 28.18 11.62 10.80                                                             
C 28.18 11.62 25.20                                                             
C 28.18 11.62 39.60                                                             
C 28.18 11.62 54.00                                                             
C 28.18 11.62 68.40                                                             
C 28.18 16.27 10.80                                                             
C 28.18 16.27 25.20                                                             
C 28.18 16.27 39.60                                                             
C 28.18 16.27 54.00                                                             
C 28.18 16.27 68.40                                                             
C  1.34  2.32  3.60                                                             
C  1.34  2.32 18.00                                                             
C  1.34  2.32 32.40                                                             
C  1.34  2.32 46.80                                                             
C  1.34  2.32 61.20                                                             
C  5.37  0.00  3.60                                                             
C  5.37  0.00 18.00                                                             
C  5.37  0.00 32.40                                                             
C  5.37  0.00 46.80                                                             
C  5.37  0.00 61.20                                                             
C  1.34  6.97  3.60                                                             
C  1.34  6.97 18.00                                                             
C  1.34  6.97 32.40                                                             
C  1.34  6.97 46.80                                                             
C  1.34  6.97 61.20                                                             
C  5.37  4.65  3.60                                                             
C  5.37  4.65 18.00                                                             
C  5.37  4.65 32.40                                                             
C  5.37  4.65 46.80                                                             
C  5.37  4.65 61.20                                                             
C  9.39  2.32  3.60                                                             
C  9.39  2.32 18.00                                                             
C  9.39  2.32 32.40                                                             
C  9.39  2.32 46.80                                                             
C  9.39  2.32 61.20                                                             
C 13.42  0.00  3.60                                                             
C 13.42  0.00 18.00                                                             
C 13.42  0.00 32.40                                                             
C 13.42  0.00 46.80                                                             
C 13.42  0.00 61.20                                                             
C  1.34 11.62  3.60                                                             
C  1.34 11.62 18.00                                                             
C  1.34 11.62 32.40                                                             
C  1.34 11.62 46.80                                                             
C  1.34 11.62 61.20                                                             
C  5.37  9.30  3.60                                                             
C  5.37  9.30 18.00                                                             
C  5.37  9.30 32.40                                                             
C  5.37  9.30 46.80                                                             
C  5.37  9.30 61.20                                                             
C  9.39  6.97  3.60                                                             
C  9.39  6.97 18.00                                                             
C  9.39  6.97 32.40                                                             
C  9.39  6.97 46.80                                                             
C  9.39  6.97 61.20                                                             
C 13.42  4.65  3.60                                                             
C 13.42  4.65 18.00                                                             
C 13.42  4.65 32.40                                                             
C 13.42  4.65 46.80                                                             
C 13.42  4.65 61.20                                                             
C 17.45  2.32  3.60                                                             
C 17.45  2.32 18.00                                                             
C 17.45  2.32 32.40                                                             
C 17.45  2.32 46.80                                                             
C 17.45  2.32 61.20                                                             
C 21.47  0.00  3.60                                                             
C 21.47  0.00 18.00                                                             
C 21.47  0.00 32.40                                                             
C 21.47  0.00 46.80                                                             
C 21.47  0.00 61.20                                                             
C  1.34 16.27  3.60                                                             
C  1.34 16.27 18.00                                                             
C  1.34 16.27 32.40                                                             
C  1.34 16.27 46.80                                                             
C  1.34 16.27 61.20                                                             
C  5.37 13.95  3.60                                                             
C  5.37 13.95 18.00                                                             
C  5.37 13.95 32.40                                                             
C  5.37 13.95 46.80                                                             
C  5.37 13.95 61.20                                                             
C  9.39 11.62  3.60                                                             
C  9.39 11.62 18.00                                                             
C  9.39 11.62 32.40                                                             
C  9.39 11.62 46.80                                                             
C  9.39 11.62 61.20                                                             
C 13.42  9.30  3.60                                                             
C 13.42  9.30 18.00                                                             
C 13.42  9.30 32.40                                                             
C 13.42  9.30 46.80                                                             
C 13.42  9.30 61.20                                                             
C 17.45  6.97  3.60                                                             
C 17.45  6.97 18.00                                                             
C 17.45  6.97 32.40                                                             
C 17.45  6.97 46.80                                                             
C 17.45  6.97 61.20                                                             
C 21.47  4.65  3.60                                                             
C 21.47  4.65 18.00                                                             
C 21.47  4.65 32.40                                                             
C 21.47  4.65 46.80                                                             
C 21.47  4.65 61.20                                                             
C 25.50  2.32  3.60                                                             
C 25.50  2.32 18.00                                                             
C 25.50  2.32 32.40                                                             
C 25.50  2.32 46.80                                                             
C 25.50  2.32 61.20                                                             
C 29.52  0.00  3.60                                                             
C 29.52  0.00 18.00                                                             
C 29.52  0.00 32.40                                                             
C 29.52  0.00 46.80                                                             
C 29.52  0.00 61.20                                                             
C  9.39 16.27  3.60                                                             
C  9.39 16.27 18.00                                                             
C  9.39 16.27 32.40                                                             
C  9.39 16.27 46.80                                                             
C  9.39 16.27 61.20                                                             
C 13.42 13.95  3.60                                                             
C 13.42 13.95 18.00                                                             
C 13.42 13.95 32.40                                                             
C 13.42 13.95 46.80                                                             
C 13.42 13.95 61.20                                                             
C 17.45 11.62  3.60                                                             
C 17.45 11.62 18.00                                                             
C 17.45 11.62 32.40                                                             
C 17.45 11.62 46.80                                                             
C 17.45 11.62 61.20                                                             
C 21.47  9.30  3.60                                                             
C 21.47  9.30 18.00                                                             
C 21.47  9.30 32.40                                                             
C 21.47  9.30 46.80                                                             
C 21.47  9.30 61.20                                                             
C 25.50  6.97  3.60                                                             
C 25.50  6.97 18.00                                                             
C 25.50  6.97 32.40                                                             
C 25.50  6.97 46.80                                                             
C 25.50  6.97 61.20                                                             
C 29.52  4.65  3.60                                                             
C 29.52  4.65 18.00                                                             
C 29.52  4.65 32.40                                                             
C 29.52  4.65 46.80                                                             
C 29.52  4.65 61.20                                                             
C 17.45 16.27  3.60                                                             
C 17.45 16.27 18.00                                                             
C 17.45 16.27 32.40                                                             
C 17.45 16.27 46.80                                                             
C 17.45 16.27 61.20                                                             
C 21.47 13.95  3.60                                                             
C 21.47 13.95 18.00                                                             
C 21.47 13.95 32.40                                                             
C 21.47 13.95 46.80                                                             
C 21.47 13.95 61.20                                                             
C 25.50 11.62  3.60                                                             
C 25.50 11.62 18.00                                                             
C 25.50 11.62 32.40                                                             
C 25.50 11.62 46.80                                                             
C 25.50 11.62 61.20                                                             
C 29.52  9.30  3.60                                                             
C 29.52  9.30 18.00                                                             
C 29.52  9.30 32.40                                                             
C 29.52  9.30 46.80                                                             
C 29.52  9.30 61.20                                                             
C 25.50 16.27  3.60                                                             
C 25.50 16.27 18.00                                                             
C 25.50 16.27 32.40                                                             
C 25.50 16.27 46.80                                                             
C 25.50 16.27 61.20                                                             
C 29.52 13.95  3.60                                                             
C 29.52 13.95 18.00                                                             
C 29.52 13.95 32.40                                                             
C 29.52 13.95 46.80                                                             
C 29.52 13.95 61.20                                                             
C  2.68  0.00 10.80                                                             
C  2.68  0.00 25.20                                                             
C  2.68  0.00 39.60                                                             
C  2.68  0.00 54.00                                                             
C  2.68  0.00 68.40                                                             
C  2.68  4.65 10.80                                                             
C  2.68  4.65 25.20                                                             
C  2.68  4.65 39.60                                                             
C  2.68  4.65 54.00                                                             
C  2.68  4.65 68.40                                                             
C  6.71  2.32 10.80                                                             
C  6.71  2.32 25.20                                                             
C  6.71  2.32 39.60                                                             
C  6.71  2.32 54.00                                                             
C  6.71  2.32 68.40                                                             
C 10.74  0.00 10.80                                                             
C 10.74  0.00 25.20                                                             
C 10.74  0.00 39.60                                                             
C 10.74  0.00 54.00                                                             
C 10.74  0.00 68.40                                                             
C  2.68  9.30 10.80                                                             
C  2.68  9.30 25.20                                                             
C  2.68  9.30 39.60                                                             
C  2.68  9.30 54.00                                                             
C  2.68  9.30 68.40                                                             
C  6.71  6.97 10.80                                                             
C  6.71  6.97 25.20                                                             
C  6.71  6.97 39.60                                                             
C  6.71  6.97 54.00                                                             
C  6.71  6.97 68.40                                                             
C 10.74  4.65 10.80                                                             
C 10.74  4.65 25.20                                                             
C 10.74  4.65 39.60                                                             
C 10.74  4.65 54.00                                                             
C 10.74  4.65 68.40                                                             
C 14.76  2.32 10.80                                                             
C 14.76  2.32 25.20                                                             
C 14.76  2.32 39.60                                                             
C 14.76  2.32 54.00                                                             
C 14.76  2.32 68.40                                                             
C 18.79  0.00 10.80                                                             
C 18.79  0.00 25.20                                                             
C 18.79  0.00 39.60                                                             
C 18.79  0.00 54.00                                                             
C 18.79  0.00 68.40                                                             
C  2.68 13.95 10.80                                                             
C  2.68 13.95 25.20                                                             
C  2.68 13.95 39.60                                                             
C  2.68 13.95 54.00                                                             
C  2.68 13.95 68.40                                                             
C  6.71 11.62 10.80                                                             
C  6.71 11.62 25.20                                                             
C  6.71 11.62 39.60                                                             
C  6.71 11.62 54.00                                                             
C  6.71 11.62 68.40                                                             
C 10.74  9.30 10.80                                                             
C 10.74  9.30 25.20                                                             
C 10.74  9.30 39.60                                                             
C 10.74  9.30 54.00                                                             
C 10.74  9.30 68.40                                                             
C 14.76  6.97 10.80                                                             
C 14.76  6.97 25.20                                                             
C 14.76  6.97 39.60                                                             
C 14.76  6.97 54.00                                                             
C 14.76  6.97 68.40                                                             
C 18.79  4.65 10.80                                                             
C 18.79  4.65 25.20                                                             
C 18.79  4.65 39.60                                                             
C 18.79  4.65 54.00                                                             
C 18.79  4.65 68.40                                                             
C 22.81  2.32 10.80                                                             
C 22.81  2.32 25.20                                                             
C 22.81  2.32 39.60                                                             
C 22.81  2.32 54.00                                                             
C 22.81  2.32 68.40                                                             
C 26.84  0.00 10.80                                                             
C 26.84  0.00 25.20                                                             
C 26.84  0.00 39.60                                                             
C 26.84  0.00 54.00                                                             
C 26.84  0.00 68.40                                                             
C  6.71 16.27 10.80                                                             
C  6.71 16.27 25.20                                                             
C  6.71 16.27 39.60                                                             
C  6.71 16.27 54.00                                                             
C  6.71 16.27 68.40                                                             
C 10.74 13.95 10.80                                                             
C 10.74 13.95 25.20                                                             
C 10.74 13.95 39.60                                                             
C 10.74 13.95 54.00                                                             
C 10.74 13.95 68.40                                                             
C 14.76 11.62 10.80                                                             
C 14.76 11.62 25.20                                                             
C 14.76 11.62 39.60                                                             
C 14.76 11.62 54.00                                                             
C 14.76 11.62 68.40                                                             
C 18.79  9.30 10.80                                                             
C 18.79  9.30 25.20                                                             
C 18.79  9.30 39.60                                                             
C 18.79  9.30 54.00                                                             
C 18.79  9.30 68.40                                                             
C 22.81  6.97 10.80                                                             
C 22.81  6.97 25.20                                                             
C 22.81  6.97 39.60                                                             
C 22.81  6.97 54.00                                                             
C 22.81  6.97 68.40                                                             
C 26.84  4.65 10.80                                                             
C 26.84  4.65 25.20                                                             
C 26.84  4.65 39.60                                                             
C 26.84  4.65 54.00                                                             
C 26.84  4.65 68.40                                                             
C 30.86  2.32 10.80                                                             
C 30.86  2.32 25.20                                                             
C 30.86  2.32 39.60                                                             
C 30.86  2.32 54.00                                                             
C 30.86  2.32 68.40                                                             
C 14.76 16.27 10.80                                                             
C 14.76 16.27 25.20                                                             
C 14.76 16.27 39.60                                                             
C 14.76 16.27 54.00                                                             
C 14.76 16.27 68.40                                                             
C 18.79 13.95 10.80                                                             
C 18.79 13.95 25.20                                                             
C 18.79 13.95 39.60                                                             
C 18.79 13.95 54.00                                                             
C 18.79 13.95 68.40                                                             
C 22.81 11.62 10.80                                                             
C 22.81 11.62 25.20                                                             
C 22.81 11.62 39.60                                                             
C 22.81 11.62 54.00                                                             
C 22.81 11.62 68.40                                                             
C 26.84  9.30 10.80                                                             
C 26.84  9.30 25.20                                                             
C 26.84  9.30 39.60                                                             
C 26.84  9.30 54.00                                                             
C 26.84  9.30 68.40                                                             
C 30.86  6.97 10.80                                                             
C 30.86  6.97 25.20                                                             
C 30.86  6.97 39.60                                                             
C 30.86  6.97 54.00                                                             
C 30.86  6.97 68.40                                                             
C 22.81 16.27 10.80                                                             
C 22.81 16.27 25.20                                                             
C 22.81 16.27 39.60                                                             
C 22.81 16.27 54.00                                                             
C 22.81 16.27 68.40                                                             
C 26.84 13.95 10.80                                                             
C 26.84 13.95 25.20                                                             
C 26.84 13.95 39.60                                                             
C 26.84 13.95 54.00                                                             
C 26.84 13.95 68.40                                                             
C 30.86 11.62 10.80                                                             
C 30.86 11.62 25.20                                                             
C 30.86 11.62 39.60                                                             
C 30.86 11.62 54.00                                                             
C 30.86 11.62 68.40                                                             
C 30.86 16.27 10.80                                                             
C 30.86 16.27 25.20                                                             
C 30.86 16.27 39.60                                                             
C 30.86 16.27 54.00                                                             
C 30.86 16.27 68.40                                                             
%ENDBLOCK POSITIONS_ABS                                                         

--------------------------------------------------------------------------------
-------------------------------- END INPUT FILE --------------------------------
--------------------------------------------------------------------------------


 
<<<<<<<<<<<<<<<<<<<<<<<<<<<<<<<<< Full system >>>>>>>>>>>>>>>>>>>>>>>>>>>>>>>>>>
<<<<<<<<<<<<<<<<<<<<<<<<<<< PAW Dataset information >>>>>>>>>>>>>>>>>>>>>>>>>>>
File: ~/pp/paw/c_pbe_abinit.paw; rc = 1.25 bohr; shape type =  3; rshape = 1.25 bohr;
  Atomic number:  6;  ionic charge:  4.000000
    Partial Wave 1: l = 0
    Partial Wave 2: l = 0
    Partial Wave 3: l = 1
    Partial Wave 4: l = 1
  Core charge supplied for Nonlinear Core Corrections
<<<<<<<<<<<<<<<<<<<<<<<<<<<<<<<<<<<<<<< >>>>>>>>>>>>>>>>>>>>>>>>>>>>>>>>>>>>>>>

-------------------------- Atom counting information ---------------------------
Symbol    Natoms    Nngwfs    Nprojs
  C        640      2560      5120
.......   ......    ......    ......
Totals:    640      2560      5120
--------------------------------------------------------------------------------

=============================== PSINC grid sizes ===============================
                      Simulation cell:   63 x  35 x 142
                              FFT-box:   63 x  35 x 117
                                  PPD:    7 x   5 x   1
Grid space d1=  0.511269841270a0 (KE cutoff=  29.06054Eh = 790.77748eV)
Grid space d2=  0.531142857143a0 (KE cutoff=  26.92659Eh = 732.70972eV)
Grid space d3=  0.507042253521a0 (KE cutoff=  29.54716Eh = 804.01905eV)
================================================================================
  
WARNING in cell_grid_distribute:
Average of less than one 23-slab per node, so workload cannot be
equally balanced between nodes.

********************* Fourier parallelisation information **********************
       Coarse grid (whole simulation cell) dimensions:     63    35   142
          Real-space ('12') slabs/node (min max mean):      3     4     3
         Recip-space ('23') slabs/node (min max mean):      0     1     0
********************************************************************************

********************* Fourier parallelisation information **********************
       Double grid (whole simulation cell) dimensions:    126    70   284
          Real-space ('12') slabs/node (min max mean):      7     8     7
         Recip-space ('23') slabs/node (min max mean):      1     2     1
********************************************************************************

Atom SCF Calculation for C  : Z (AE atom) =   6 : Z (PS atom) =   4
Config String: 2s2 2p2
Orbitals (num,occ):  2     2.00 2.00
Orbitals   (num,l):  2        0    1
Real-space Grid (nr,dr,rmax): 1293    0.0069659443    9.0000000000
Spherical Bessel Basis (nsws,lmax,cutoff):   37    2  161.4736382572
Confining potential (l,width,scale):  0    3.0000000000  100.0000000000
Confining potential (l,width,scale):  1    3.0000000000  100.0000000000
  1         -5.4691149987   -1.3647045835    4.5135257941   -1.6713568800
  2         -5.5214542834   -1.4154291535    4.4635199061   -1.6585170582
  3         -5.5221055910   -1.4439161209    4.4342087028   -1.6520281659
  4         -5.5287901521   -1.4522301802    4.4259176063   -1.6507873939
  5         -5.5308251003   -1.4557840400    4.4224142384   -1.6502632738
  6         -5.5317252094   -1.4571386008    4.4211068249   -1.6500892907
  7         -5.5320765973   -1.4576738924    4.4205997642   -1.6500256779
  8         -5.5322192721   -1.4578833190    4.4204056023   -1.6500032912
  9         -5.5322765240   -1.4579657561    4.4203308649   -1.6499954152
 10         -5.5322995843   -1.4579982639    4.4203020904   -1.6499927055
 11         -5.5323088576   -1.4580111317    4.4202909828   -1.6499917962
 12         -5.5323125859   -1.4580162439    4.4202866844   -1.6499915030
 13         -5.5323140836   -1.4580182832    4.4202850159   -1.6499914143
 14         -5.5323146847   -1.4580191002    4.4202843659   -1.6499913905
 15         -5.5323149258   -1.4580194290    4.4202841117   -1.6499913858
 16         -5.5323150224   -1.4580195619    4.4202840119   -1.6499913859
Atom SCF converged after  16 iterations to a total energy of     -5.53231502

Determining parallel strategy ...
... using space-filling curve
... NGWF load balancing: max     64;  min     64;  average     64
... Projector load balancing: max    128;  min    128;  average    128
... done
Calculating Ewald energy ...
              Ewald: real-space energy =    9487.229121
        Ewald: reciprocal-space energy =       0.442767
         Ewald: (sum_charge)**2 Energy =   10843.989123
         Ewald: (sum_charge**2) Energy =     857.292614
                          Ewald Energy =   -2213.609850
Basis initialisation ...... NGWF spheres initialised
... Projector spheres initialised
... NGWF tight boxes initialised
... Projector tight boxes initialised
... Tight-boxes gathered
... NGWF basis size (local,global):     692340  27908448
... PAW projector initialisation
... done

============================= Charge Augmentation ==============================
                           Aug box size:   11 x  11 x  11
================================================================================

========================== Sparse matrix information ===========================
                        Overlap matrix filling:  40.94%
                        Density kernel filling: 100.00%
              NGWF-Proj overlap matrix filling:  12.19%
                    Aug Overlap matrix filling:  47.03%
                    Hamiltonian matrix filling:  47.03%
                  NGWF diagonal matrix filling:   0.16%
                             KS matrix filling: 100.00% 
                           KSKS matrix filling: 100.00% 
================================================================================

Sparse matrix initialisation ... done
NGWF initialisation ...... done
============ Calculation of NGWF S^-1 using Hotelling algorithm ================ 
         Iteration  |  Frobenius norm and Maximum abs value    (of I-S*S_n^-1)   
               1       0.48931256E+02     0.97431536E+00
               2       0.47619195E+02     0.95048930E+00
               3       0.45680268E+02     0.90757811E+00
               4       0.43203584E+02     0.83640739E+00
               5       0.40260110E+02     0.73166203E+00
               6       0.36876513E+02     0.67206865E+00
               7       0.33398179E+02     0.62550951E+00
               8       0.30048969E+02     0.58558151E+00
               9       0.26355980E+02     0.53885533E+00
              10       0.21621368E+02     0.46405665E+00
              11       0.15517448E+02     0.34756050E+00
              12       0.87383744E+01     0.20019529E+00
              13       0.32017786E+01     0.71364756E-01
              14       0.51310647E+00     0.10482498E-01
              15       0.15503543E-01     0.27710747E-03
              16       0.18085484E-04     0.24581540E-06
              17       0.37448059E-10     0.30997427E-12
================================================================================
Calculating core density ...
================================= Core Density =================================
               Core den box size:   21 x  21 x  21
================================================================================
 ... done
Up spin density kernel initialisation ...... done

Writing density kernel to file "3.8101304_GO_manual_4x64graphite.dkn" ... done

>>> Optimising kernel for current NGWFs:

--------------------------- Ensemble-DFT optimisation --------------------------
Running ScaLAPACK on   40 processor(s).

--------------------------------------------------------------------------------
  Iter                              Commutator    Free_energy(A=E-TS)     DeltaA
#    0                          0.000048196349   -3679.81145143326285  -3.68E+03

Step                       =       0.381966011250
Energy                     =   -3679.811419831048
Entropy (-TS)              =      -0.000031602230
Free energy (A=E-TS)       =   -3679.811451433263
Est. 0K Energy 0.5*(E+A)   =   -3679.811435632155
Residual Non-orthogonality =       0.000000000000
Residual N_electrons       =       0.000000000016

Spin          Integrated_Ne            Fermi_level     Delta_Fermi_level
   1      2559.999999999894         0.146987176683              1.47E-01

                           Spin 1          
     Orb      H-eigenvalues     Occupancies
       1 |    -0.5678548529    1.0000000000 | 
                          ------
    1276 |     0.1121781530    0.9999831614 | 
    1277 |     0.1127767910    0.9999796577 | 
    1278 |     0.1127906429    0.9999795685 | 
    1279 |     0.1128009041    0.9999795022 | 
    1280 |     0.1134005066    0.9999752295 | 
                 - Gap at zero temperature -
    1281 |     0.1826484162    0.0000128657 | 
    1282 |     0.1826602794    0.0000128176 | 
    1283 |     0.1826660238    0.0000127944 | 
    1284 |     0.1827963020    0.0000122788 | 
    1285 |     0.1828169711    0.0000121989 | 
                          ------
    2560 |     0.9670660105    0.0000000000 | 

                       |  Abs_value |  Threshold | Converged
     Delta_Free_energy |   3.68E+03 |   1.00E-06 |        No
     Delta_Energy      |   3.68E+03 |   1.00E-04 |        No
     Delta_Entropy     |   3.16E-05 |   1.00E-04 |       Yes
     Commutator        |   4.82E-05 |   1.00E-05 |        No
     Delta_Fermi_level |   1.47E-01 |   1.00E-03 |        No

  Line search of the free energy minimum:
  Step_type        Step             Free_energy   Predicted_free_energy
.   Initial    0.000000    -3679.81145143326285
.    Trial1    0.381966    -3679.81400342958295
.    Trial2    0.618034    -3679.81472988847099
. Quadratic    0.763867    -3679.81485673090492    -3679.81485390277339

--------------------------------------------------------------------------------
  Iter                              Commutator    Free_energy(A=E-TS)     DeltaA
#    1                          0.000023468293   -3679.81485673090492  -3.41E-03

Step                       =       0.763867278683
Energy                     =   -3679.814826280879
Entropy (-TS)              =      -0.000030450091
Free energy (A=E-TS)       =   -3679.814856730905
Est. 0K Energy 0.5*(E+A)   =   -3679.814841505892
Residual Non-orthogonality =       0.000000000000
Residual N_electrons       =       0.000000000065

Spin          Integrated_Ne            Fermi_level     Delta_Fermi_level
   1      2559.999999999554         0.146231957561             -7.55E-04

                           Spin 1          
     Orb      H-eigenvalues     Occupancies
       1 |    -0.5722042371    1.0000000000 | 
                          ------
    1276 |     0.1113648628    0.9999834674 | 
    1277 |     0.1117796141    0.9999811540 | 
    1278 |     0.1117879552    0.9999811043 | 
    1279 |     0.1119505987    0.9999801085 | 
    1280 |     0.1123741928    0.9999772617 | 
                 - Gap at zero temperature -
    1281 |     0.1819290918    0.0000127207 | 
    1282 |     0.1819421267    0.0000126685 | 
    1283 |     0.1819527971    0.0000126259 | 
    1284 |     0.1820879858    0.0000120982 | 
    1285 |     0.1821058985    0.0000120300 | 
                          ------
    2560 |     0.9642159343    0.0000000000 | 

                       |  Abs_value |  Threshold | Converged
     Delta_Free_energy |   3.41E-03 |   1.00E-06 |        No
     Delta_Energy      |   3.41E-03 |   1.00E-04 |        No
     Delta_Entropy     |   1.15E-06 |   1.00E-04 |       Yes
     Commutator        |   2.35E-05 |   1.00E-05 |        No
     Delta_Fermi_level |   7.55E-04 |   1.00E-03 |       Yes

  Line search of the free energy minimum:
  Step_type        Step             Free_energy   Predicted_free_energy
.   Initial    0.000000    -3679.81485673090492
.    Trial1    0.763867    -3679.81266880755720
.    Trial2    0.291771    -3679.81535421316221
. Quadratic    0.233967    -3679.81538677298431    -3679.81538655317217

--------------------------------------------------------------------------------
  Iter                              Commutator    Free_energy(A=E-TS)     DeltaA
#    2                          0.000009868307   -3679.81538677298431  -5.30E-04

Step                       =       0.233967090821
Energy                     =   -3679.815356420689
Entropy (-TS)              =      -0.000030352362
Free energy (A=E-TS)       =   -3679.815386772984
Est. 0K Energy 0.5*(E+A)   =   -3679.815371596836
Residual Non-orthogonality =       0.000000000000
Residual N_electrons       =       0.000000000066

Spin          Integrated_Ne            Fermi_level     Delta_Fermi_level
   1      2559.999999999547         0.146194154974             -3.78E-05

                           Spin 1          
     Orb      H-eigenvalues     Occupancies
       1 |    -0.5725096729    1.0000000000 | 
                          ------
    1276 |     0.1112699461    0.9999837629 | 
    1277 |     0.1117651415    0.9999810146 | 
    1278 |     0.1117730177    0.9999809674 | 
    1279 |     0.1118545983    0.9999804707 | 
    1280 |     0.1123583093    0.9999771038 | 
                 - Gap at zero temperature -
    1281 |     0.1819354419    0.0000125446 | 
    1282 |     0.1819492812    0.0000124899 | 
    1283 |     0.1819595065    0.0000124497 | 
    1284 |     0.1820966831    0.0000119219 | 
    1285 |     0.1821144616    0.0000118552 | 
                          ------
    2560 |     0.9640159292    0.0000000000 | 

                       |  Abs_value |  Threshold | Converged
     Delta_Free_energy |   5.30E-04 |   1.00E-06 |        No
     Delta_Energy      |   5.30E-04 |   1.00E-04 |        No
     Delta_Entropy     |   9.77E-08 |   1.00E-04 |       Yes
     Commutator        |   9.87E-06 |   1.00E-05 |       Yes
     Delta_Fermi_level |   3.78E-05 |   1.00E-03 |       Yes

  Line search of the free energy minimum:
  Step_type        Step             Free_energy   Predicted_free_energy
.   Initial    0.000000    -3679.81538677298431
.    Trial1    0.233967    -3679.81546624638804
.    Trial2    0.526566    -3679.81547737414803
. Quadratic    0.413460    -3679.81548469163045    -3679.81548470259941

--------------------------------------------------------------------------------
  Iter                              Commutator    Free_energy(A=E-TS)     DeltaA
#    3                          0.000006254878   -3679.81548469163045  -9.79E-05

Step                       =       0.413460333084
Energy                     =   -3679.815454473428
Entropy (-TS)              =      -0.000030218072
Free energy (A=E-TS)       =   -3679.815484691630
Est. 0K Energy 0.5*(E+A)   =   -3679.815469582529
Residual Non-orthogonality =       0.000000000000
Residual N_electrons       =      -0.000000000130

Spin          Integrated_Ne            Fermi_level     Delta_Fermi_level
   1      2560.000000000891         0.146141016148             -5.31E-05

                           Spin 1          
     Orb      H-eigenvalues     Occupancies
       1 |    -0.5729117730    1.0000000000 | 
                          ------
    1276 |     0.1111733644    0.9999839841 | 
    1277 |     0.1117138800    0.9999810034 | 
    1278 |     0.1117212630    0.9999809590 | 
    1279 |     0.1117567494    0.9999807445 | 
    1280 |     0.1123053710    0.9999771023 | 
                 - Gap at zero temperature -
    1281 |     0.1819161369    0.0000124113 | 
    1282 |     0.1819307642    0.0000123541 | 
    1283 |     0.1819404688    0.0000123163 | 
    1284 |     0.1820793746    0.0000117878 | 
    1285 |     0.1820970236    0.0000117223 | 
                          ------
    2560 |     0.9637753023    0.0000000000 | 

                       |  Abs_value |  Threshold | Converged
     Delta_Free_energy |   9.79E-05 |   1.00E-06 |        No
     Delta_Energy      |   9.81E-05 |   1.00E-04 |       Yes
     Delta_Entropy     |   1.34E-07 |   1.00E-04 |       Yes
     Commutator        |   6.25E-06 |   1.00E-05 |       Yes
     Delta_Fermi_level |   5.31E-05 |   1.00E-03 |       Yes

  Line search of the free energy minimum:
  Step_type        Step             Free_energy   Predicted_free_energy
.   Initial    0.000000    -3679.81548469163045
.    Trial1    0.413460    -3679.81550930725916
.    Trial2    0.637499    -3679.81545398938806
. Quadratic    0.268656    -3679.81551939662631    -3679.81551938686425

--------------------------------------------------------------------------------
  Iter                              Commutator    Free_energy(A=E-TS)     DeltaA
#    4                          0.000003951095   -3679.81551939662631  -3.47E-05

Step                       =       0.268655601721
Energy                     =   -3679.815489231586
Entropy (-TS)              =      -0.000030165078
Free energy (A=E-TS)       =   -3679.815519396626
Est. 0K Energy 0.5*(E+A)   =   -3679.815504314106
Residual Non-orthogonality =       0.000000000000
Residual N_electrons       =       0.000000000038

Spin          Integrated_Ne            Fermi_level     Delta_Fermi_level
   1      2559.999999999743         0.146121694991             -1.93E-05

                           Spin 1          
     Orb      H-eigenvalues     Occupancies
       1 |    -0.5730653610    1.0000000000 | 
[...]
 C   160 -- C   385       -0.09      5.37000
 C   159 -- C   384       -0.09      5.37000
 C   158 -- C   383       -0.09      5.37000
 C   157 -- C   382       -0.09      5.37000
 C   156 -- C   381       -0.09      5.37000
 C   155 -- C   355       -0.09      5.37000
 C   154 -- C   354       -0.09      5.37000
 C   153 -- C   353       -0.09      5.37000
 C   152 -- C   352       -0.09      5.37000
 C   151 -- C   351       -0.09      5.37000
 C   140 -- C   335       -0.09      5.37000
 C   139 -- C   334       -0.09      5.37000
 C   138 -- C   333       -0.09      5.37000
 C   137 -- C   332       -0.09      5.37000
 C   136 -- C   331       -0.09      5.37000
 C   115 -- C   325       -0.09      5.37000
 C   114 -- C   324       -0.09      5.37000
 C   113 -- C   323       -0.09      5.37000
 C   112 -- C   322       -0.09      5.37000
 C   111 -- C   321       -0.09      5.37000
 C   285 -- C   580       -0.09      5.37202
 C   284 -- C   579       -0.09      5.37202
 C   283 -- C   578       -0.09      5.37202
 C   282 -- C   577       -0.09      5.37202
 C   281 -- C   576       -0.09      5.37202
 C   260 -- C   605       -0.09      5.37202
 C   259 -- C   604       -0.09      5.37202
 C   258 -- C   603       -0.09      5.37202
 C   257 -- C   602       -0.09      5.37202
 C   256 -- C   601       -0.09      5.37202
 C   219 -- C   569       -0.09      5.37202
 C   218 -- C   568       -0.09      5.37202
 C   217 -- C   567       -0.09      5.37202
 C   216 -- C   566       -0.09      5.37202
 C   205 -- C   550       -0.09      5.37202
 C   204 -- C   549       -0.09      5.37202
 C   203 -- C   548       -0.09      5.37202
 C   202 -- C   547       -0.09      5.37202
 C   201 -- C   546       -0.09      5.37202
 C   150 -- C   440       -0.09      5.37202
 C   149 -- C   439       -0.09      5.37202
 C   148 -- C   438       -0.09      5.37202
 C   147 -- C   437       -0.09      5.37202
 C   146 -- C   436       -0.09      5.37202
 C   135 -- C   460       -0.09      5.37202
 C   134 -- C   459       -0.09      5.37202
 C   133 -- C   458       -0.09      5.37202
 C   132 -- C   457       -0.09      5.37202
 C   131 -- C   456       -0.09      5.37202
 C   260 -- C   550       -0.09      5.37202
 C   259 -- C   549       -0.09      5.37202
 C   258 -- C   548       -0.09      5.37202
 C   257 -- C   547       -0.09      5.37202
 C   256 -- C   546       -0.09      5.37202
 C   250 -- C   540       -0.09      5.37202
 C   249 -- C   539       -0.09      5.37202
 C   248 -- C   538       -0.09      5.37202
 C   247 -- C   537       -0.09      5.37202
 C   246 -- C   536       -0.09      5.37202
 C   230 -- C   580       -0.09      5.37202
 C   230 -- C   525       -0.09      5.37202
 C   229 -- C   579       -0.09      5.37202
 C   229 -- C   524       -0.09      5.37202
 C   228 -- C   578       -0.09      5.37202
 C   228 -- C   523       -0.09      5.37202
 C   227 -- C   577       -0.09      5.37202
 C   227 -- C   522       -0.09      5.37202
 C   226 -- C   576       -0.09      5.37202
 C   226 -- C   521       -0.09      5.37202
 C   220 -- C   570       -0.09      5.37202
 C    95 -- C   425       -0.09      5.37202
 C    94 -- C   424       -0.09      5.37202
 C    93 -- C   423       -0.09      5.37202
 C    92 -- C   422       -0.09      5.37202
 C    91 -- C   421       -0.09      5.37202
 C   120 -- C   395       -0.09      5.37202
 C   119 -- C   394       -0.09      5.37202
 C   118 -- C   393       -0.09      5.37202
 C   117 -- C   392       -0.09      5.37202
 C   116 -- C   391       -0.09      5.37202
 C   106 -- C   436       -0.09      5.37202
 C   220 -- C   515       -0.09      5.37202
 C   219 -- C   514       -0.09      5.37202
 C   106 -- C   376       -0.09      5.37202
 C   218 -- C   513       -0.09      5.37202
 C   217 -- C   512       -0.09      5.37202
 C   216 -- C   511       -0.09      5.37202
 C    95 -- C   365       -0.09      5.37202
 C    94 -- C   364       -0.09      5.37202
 C   195 -- C   540       -0.09      5.37202
 C   195 -- C   500       -0.09      5.37202
 C    93 -- C   363       -0.09      5.37202
 C   194 -- C   539       -0.09      5.37202
 C   194 -- C   499       -0.09      5.37202
 C   193 -- C   538       -0.09      5.37202
 C   193 -- C   498       -0.09      5.37202
 C    92 -- C   362       -0.09      5.37202
 C   192 -- C   537       -0.09      5.37202
 C   192 -- C   497       -0.09      5.37202
 C   191 -- C   536       -0.09      5.37202
 C   191 -- C   496       -0.09      5.37202
 C    91 -- C   361       -0.09      5.37202
 C    85 -- C   355       -0.09      5.37202
 C   180 -- C   515       -0.09      5.37202
 C    84 -- C   354       -0.09      5.37202
 C   179 -- C   514       -0.09      5.37202
 C    83 -- C   353       -0.09      5.37202
 C   178 -- C   513       -0.09      5.37202
 C   177 -- C   512       -0.09      5.37202
 C    82 -- C   352       -0.09      5.37202
 C   176 -- C   511       -0.09      5.37202
 C    81 -- C   351       -0.09      5.37202
 C    80 -- C   410       -0.09      5.37202
 C    79 -- C   409       -0.09      5.37202
 C    78 -- C   408       -0.09      5.37202
 C    77 -- C   407       -0.09      5.37202
 C    76 -- C   406       -0.09      5.37202
 C    65 -- C   395       -0.09      5.37202
 C    64 -- C   394       -0.09      5.37202
 C    63 -- C   393       -0.09      5.37202
 C   135 -- C   410       -0.09      5.37202
 C    62 -- C   392       -0.09      5.37202
 C   134 -- C   409       -0.09      5.37202
 C   133 -- C   408       -0.09      5.37202
 C    61 -- C   391       -0.09      5.37202
 C   132 -- C   407       -0.09      5.37202
 C   131 -- C   406       -0.09      5.37202
 C    55 -- C   385       -0.09      5.37202
 C    54 -- C   384       -0.09      5.37202
 C    53 -- C   383       -0.09      5.37202
 C    52 -- C   382       -0.09      5.37202
 C   110 -- C   440       -0.09      5.37202
 C    51 -- C   381       -0.09      5.37202
 C   110 -- C   380       -0.09      5.37202
 C   109 -- C   439       -0.09      5.37202
 C   109 -- C   379       -0.09      5.37202
 C   108 -- C   438       -0.09      5.37202
 C   108 -- C   378       -0.09      5.37202
 C   107 -- C   437       -0.09      5.37202
 C   107 -- C   377       -0.09      5.37202
 C    40 -- C   365       -0.09      5.37202
 C    39 -- C   364       -0.09      5.37202
 C    38 -- C   363       -0.09      5.37202
 C    37 -- C   362       -0.09      5.37202
 C    36 -- C   361       -0.09      5.37202
 C    65 -- C   345       -0.09      5.37202
 C    64 -- C   344       -0.09      5.37202
 C    30 -- C   355       -0.09      5.37202
 C    63 -- C   343       -0.09      5.37202
 C    62 -- C   342       -0.09      5.37202
 C    29 -- C   354       -0.09      5.37202
 C    61 -- C   341       -0.09      5.37202
 C    28 -- C   353       -0.09      5.37202
 C    27 -- C   352       -0.09      5.37202
 C    26 -- C   351       -0.09      5.37202
 C    55 -- C   335       -0.09      5.37202
 C    54 -- C   334       -0.09      5.37202
 C    53 -- C   333       -0.09      5.37202
 C    52 -- C   332       -0.09      5.37202
 C    51 -- C   331       -0.09      5.37202
 C    11 -- C   331       -0.09      5.37202
 C    15 -- C   335       -0.09      5.37202
 C    30 -- C   325       -0.09      5.37202
 C    14 -- C   334       -0.09      5.37202
 C    29 -- C   324       -0.09      5.37202
 C    28 -- C   323       -0.09      5.37202
 C    13 -- C   333       -0.09      5.37202
 C    27 -- C   322       -0.09      5.37202
 C    26 -- C   321       -0.09      5.37202
 C    12 -- C   332       -0.09      5.37202
 C    23 -- C   478       -0.09      5.37202
 C    49 -- C   469       -0.09      5.37202
 C    48 -- C   468       -0.09      5.37202
 C    47 -- C   467       -0.09      5.37202
 C    22 -- C   477       -0.09      5.37202
 C    46 -- C   466       -0.09      5.37202
 C    21 -- C   476       -0.09      5.37202
 C    25 -- C   480       -0.09      5.37202
 C    24 -- C   479       -0.09      5.37202
 C    50 -- C   470       -0.09      5.37202
 C    24 -- C   449       -0.09      5.37202
 C     6 -- C   416       -0.09      5.37202
 C    23 -- C   448       -0.09      5.37202
 C    22 -- C   447       -0.09      5.37202
 C    10 -- C   470       -0.09      5.37202
 C     5 -- C   450       -0.09      5.37202
 C    21 -- C   446       -0.09      5.37202
 C    10 -- C   420       -0.09      5.37202
 C     9 -- C   469       -0.09      5.37202
 C     9 -- C   419       -0.09      5.37202
 C     8 -- C   468       -0.09      5.37202
 C     4 -- C   449       -0.09      5.37202
 C     8 -- C   418       -0.09      5.37202
 C     2 -- C   447       -0.09      5.37202
 C     7 -- C   467       -0.09      5.37202
 C     7 -- C   417       -0.09      5.37202
 C     1 -- C   446       -0.09      5.37202
 C     6 -- C   466       -0.09      5.37202
 C    25 -- C   450       -0.09      5.37202
 C     3 -- C   448       -0.09      5.37202
 C   215 -- C   635       -0.09      5.38000
 C   214 -- C   634       -0.09      5.38000
 C   213 -- C   633       -0.09      5.38000
 C   212 -- C   632       -0.09      5.38000
 C   211 -- C   631       -0.09      5.38000
 C   190 -- C   620       -0.09      5.38000
 C   189 -- C   619       -0.09      5.38000
 C   188 -- C   618       -0.09      5.38000
 C   187 -- C   617       -0.09      5.38000
 C   186 -- C   616       -0.09      5.38000
 C   175 -- C   595       -0.09      5.38000
 C   174 -- C   594       -0.09      5.38000
 C   173 -- C   593       -0.09      5.38000
 C   172 -- C   592       -0.09      5.38000
 C   171 -- C   591       -0.09      5.38000
 C   245 -- C   640       -0.09      5.38000
 C   244 -- C   639       -0.09      5.38000
 C   243 -- C   638       -0.09      5.38000
 C   242 -- C   637       -0.09      5.38000
 C   241 -- C   636       -0.09      5.38000
==================================================


=================== Orbital energy and occupancy information ===================

      Total number of orbitals:    2560
        Occupancy sum (kernel):    1279.999999999
   Occupancy sum (eigenvalues):    1279.999999999
                 HOMO-LUMO gap:       0.066740379 Eh
                 Mid-gap level:       0.208255642 Eh

                        Orbital | Energy (Eh) | Occupancy
                            1    -0.509269234   1.0000000
                        .......   ...........   .........
                         1271     0.170905981   0.9999884
                         1272     0.170932453   0.9999883
                         1273     0.171374417   0.9999865
                         1274     0.171400824   0.9999864
                         1275     0.173536270   0.9999733
                         1276     0.173548770   0.9999732
                         1277     0.174003767   0.9999691
                         1278     0.174016220   0.9999690
                         1279     0.174419783   0.9999648
                         1280     0.174885452   0.9999592
                        ....... -- gap at 0K -- .........
                         1281     0.241625831   0.0000172
                         1282     0.241649462   0.0000171
                         1283     0.241882073   0.0000159
                         1284     0.241905574   0.0000158
                         1285     0.241929641   0.0000156
                         1286     0.241942341   0.0000156
                         1287     0.242149227   0.0000146
                         1288     0.242195075   0.0000144
                         1289     0.242208212   0.0000143
                         1290     0.242250874   0.0000141
                        .......   ...........   .........
                         2560     1.088161961   0.0000000

================================================================================

===================== Writing canonical molecular orbitals =====================
| Orbital  Energy (eV)  Norm     |
| HOMO      4.75887531  1.000000 | Writing "3.8101304_GO_manual_4x64graphite_HOMO.cube" ... done
Writing "3.8101304_GO_manual_4x64graphite_HOMO.dx" ... done
| LUMO      6.57497342  1.000000 | Writing "3.8101304_GO_manual_4x64graphite_LUMO.cube" ... done
Writing "3.8101304_GO_manual_4x64graphite_LUMO.dx" ... done
================================================================================
 
===================== Density of States (DOS) calculation ======================
Writing "3.8101304_GO_manual_4x64graphite_DOS.txt" ...  done
================================================================================
 
Writing bands to file "3.8101304_GO_manual_4x64graphite.val_bands" ... done
 
================ Projected Density of States (pDOS) calculation ================
 
Constructing AM resolved functions  ...... done
Writing NGWF plot files in formats: CUBE DX ...  done
 
Performing overlap integrals ...  done
 
Computing pDOS weights ...  done
 
All bands spilling parameter =   2.99 %
Occupancy-weighted spilling parameter =   0.98 %
 
 => Outputting data for OptaDOS <=
 
Writing pDOS weights to file "3.8101304_GO_manual_4x64graphite.val_pdos_bin" ... done
 
Writing band gradients to file "3.8101304_GO_manual_4x64graphite.val_dome_bin" ... done
 
Writing Castep output cell file to "3.8101304_GO_manual_4x64graphite-out.cell" ... done
 
 => Computing Gaussian smeared pDOS <= 
Writing "3.8101304_GO_manual_4x64graphite_PDOS.txt" ...  done
 
 => Computing Occupancy-weighted Gaussian smeared pDOS <= 
Writing "3.8101304_GO_manual_4x64graphite_occ_PDOS.txt" ...  done
  => Band centres: 
 S band centre of group 1:  -13.788087 eV
 P band centre of group 1:   -6.675506 eV
  Band centres done. <=
  => Integrated number of electrons in each AM band: 
 S num electrons of group 1:  574.337819
 P num electrons of group 1: 1960.661481
  Integrated number of electrons done. <=
================================================================================

------------------------------ TIMING INFORMATION ------------------------------
AVERAGE TIME:    3139.064s on     40 node(s)                                    
TOTAL TIME:      3139.064s on     40 node(s)                                    
================= AVERAGE TIMINGS FROM ALL NODES (CUMULATIVE) ==================
|| TAG                                    #calls    cpu time   %total  Gflops ||
|| work_imbalance                       :     1        0.00s   0.000%  ------ ||
|| paw_tcore_hartree_on_grid            :     1        0.00s   0.000%  ------ ||
|| paw_tcore_density                    :     1        0.01s   0.000%  ------ ||
|| paw_sphere_density_on_grid           :     1        0.01s   0.000%  ------ ||
|| sparse_set_to_garbage                :   135        0.02s   0.001%  ------ ||
|| paw_dij_hartree                      :   282        0.04s   0.001%  ------ ||
|| pseudo_make_structure_factor         :     1        0.06s   0.002%  ------ ||
|| basis_extract_function_from_box      :  1536        0.07s   0.002%  ------ ||
|| paw_species_calc_proj_prec_mat       :     1        0.13s   0.004%  ------ ||
|| paw_dataset_init                     :     1        0.15s   0.005%  ------ ||
|| density_init_guess_real              :     1        0.18s   0.006%  ------ ||
|| restart_kernel_write                 :    13        0.56s   0.018%  ------ ||
|| ngwfs_initialise_from_radial         :     2        0.66s   0.021%  ------ ||
|| sparse_init                          :     1        0.86s   0.027%  ------ ||
|| dense_normal_eigensolve              :     1        1.15s   0.037%  ------ ||
|| hartree_on_grid                      :   212        1.55s   0.049%  ------ ||
|| projectors_init_fftbox_recip         :   121        2.34s   0.075%  ------ ||
|| ewald_calculate_energy               :     1        3.23s   0.103%  ------ ||
|| fourier_apply_box_pair               :  2272        3.77s   0.120% 558.439 ||
|| basis_copy_function_to_box           : 20160        4.32s   0.138%  ------ ||
|| augmentation_screen_dij              :   217        4.74s   0.151%  ------ ||
|| sparse_embed_hotelling_invert_embed  :    23        6.58s   0.210%  ------ ||
|| sw_init                              :     1        6.73s   0.215%  ------ ||
|| ngwf_gradient_coeffs                 :    12        8.34s   0.266%  ------ ||
|| sparse_trace                         :  2554       11.88s   0.378%  ------ ||
|| cell_grid_extract_box_real           :  8540       15.27s   0.486%  ------ ||
|| cell_grid_deposit_box_real           : 27312       17.73s   0.565%  ------ ||
|| paw_dij_xc                           :   282       19.30s   0.615%  ------ ||
|| fourier_apply_cell_backward          :  6543       19.63s   0.625%  44.838 ||
|| fourier_apply_cell_forward           :  6120       20.34s   0.648%  40.474 ||
|| aug_nonlocal_mat                     :   270       28.09s   0.895%  ------ ||
|| density_fftbox_deposit_to_cell       : 13568       36.12s   1.151%  ------ ||
|| augmentation_density_on_grid         :   212       36.31s   1.157%  ------ ||
|| function_ops_brappd_ketppd           :    48       46.90s   1.494%  ------ ||
|| hamiltonian_energy_components        :     3       47.26s   1.505%  ------ ||
|| projectors_func_ovlp_box             :    24       53.71s   1.711%  ------ ||
|| eigenstates_pdos                     :     1       54.20s   1.727%  ------ ||
|| eigenstates_calculate                :     1       58.66s   1.869%  ------ ||
|| integrals_kinetic                    :    23       76.82s   2.447%  ------ ||
|| nlxc_vdw_energy                      :   422       77.47s   2.468%  ------ ||
|| xc_energy_potential                  :   211       77.77s   2.478%  ------ ||
|| dense_eigensolve                     :   185       96.78s   3.083%  ------ ||
|| sparse_product                       :  2585      100.32s   3.196%  ------ ||
|| potential_apply_to_ngwf_batch        :   268      104.97s   3.344%  ------ ||
|| properties_calculate                 :     1      107.61s   3.428%  ------ ||
|| restart_ngwfs_tightbox_output        :    11      114.45s   3.646%  ------ ||
|| basis_dot_function_with_box          : 6.224M     172.52s   5.496%  ------ ||
|| fourier_apply_box                    : 63488      197.23s   6.283% 978.737 ||
|| edft_diag_ngwf_ham                   :   184      210.38s   6.702%  ------ ||
|| projectors_gradient_batch            :    48      218.78s   6.970%  ------ ||
|| integrals_locpot_mat_els_batch       :   268      231.85s   7.386%  ------ ||
|| density_fftbox_interpolate_multiply  : 13568      263.05s   8.380%  ------ ||
|| projectors_grad_precond_batch        :    48      300.59s   9.576%  ------ ||
|| density_batch_interp_deposit         :   848      331.74s  10.568%  ------ ||
|| integrals_locpot_dbl_grid            :    67      338.01s  10.768%  ------ ||
|| edft_apply_smearing_operator         :   184      405.09s  12.905%  ------ ||
|| basis_add_function_to_box            : 17.44M     465.70s  14.836%  ------ ||
|| ngwf_gradient_build_batch            :    48      555.71s  17.703%  ------ ||
|| density_batch_row_sums               :   848      655.08s  20.869%  ------ ||
|| ngwf_gradient_batch                  :    48      737.27s  23.487%  ------ ||
|| ngwf_gradient_lnv                    :    12      769.20s  24.504%  ------ ||
|| density_on_dbl_grid                  :   212      998.07s  31.795%  ------ ||
|| hamiltonian_lhxc_calculate           :   207     1088.88s  34.688%  ------ ||
|| edft_calculate                       :    12     1809.98s  57.660%  ------ ||
|| ngwf_cg_optimise                     :     1     3005.81s  95.755%  ------ ||
|| total_time                           :     1     3139.06s 100.000%  ------ ||
================================================================================
Overhead of generating timer report: 
- 0 ms averaging over threads,
- 5 ms ensuring consistency across MPI ranks,
- 0 ms printing in order.

Job completed: 29-02-2020 12:24 (-0000)

