 +---------------------------------------------------------------+
 |                                                               |
 |        ####### #     # ####### ####### ####### ######         |
 |        #     # ##    # #          #    #       #     #        |
 |        #     # # #   # #          #    #       #     #        |
 |        #     # #  #  # #####      #    #####   ######         |
 |        #     # #   # # #          #    #       #              |
 |        #     # #    ## #          #    #       #              |
 |        ####### #     # #######    #    ####### #              |
 |                                                               |
 |        Linear-Scaling Ab Initio Total Energy Program          |
 |                                                               |
 |          Release for academic collaborators of ODG            |
 |                                             Version 5.3.2.12  |
 |                                                               |
 +---------------------------------------------------------------+
 |                                                               |
 |  Authors:                                                     |
 |  Jacek Dziedzic, Peter D. Haynes, Nicholas D. M. Hine,        |
 |  Arash. A. Mostofi, Mike C. Payne and Chris-Kriton Skylaris   |
 |                                                               |
 |  Contributors:                                                |
 |  J. Aarons, L. Andrinopoulos, P. W. Avraam, R. A. Bell,       |
 |  A. Bhandari, G. A. Bramley, R. J. Charlton, S. J. Clark,     |
 |  R. J. Clements, G. C. Constantinescu, F. Corsetti,           |
 |  N. Corsini, O. Dieguez, S. M. M. Dubois, K. K. B. Duff,      |
 |  J. M. Escartin, A. Greco, H. Helal, Q. O. Hill, L. P. Lee,   |
 |  J.-H. Li, E. B. Linscott, G. Moynihan, D. D. O`Regan,        |
 |  O. K. Okan, M. J. S. Phipps, C. J. Pickard,                  |
 |  J. C. A. Prentice, M. I. J. Probert, L. E. Ratcliff,         |
 |  M. Robinson, A. Ruiz Serrano, J. S. Spencer, E. W. Tait,     |
 |  G. Teobaldi, D. Turban, V. Vitale, K. A. Wilkinson,          |
 |  C. Weber, J. C. Womack, N. Yeung and T. J. Zuehlsdorff       |
 |                                                               |
 |                                   Copyright (c) 2004-2020     |
 |                                                               |
 |  Please cite:                                                 |
 |  "Introducing ONETEP: Linear-scaling density functional       |
 |   simulations on parallel computers".                         |
 |   C.-K. Skylaris, P. D. Haynes, A. A. Mostofi, M. C. Payne.   |
 |   J. Chem. Phys. 122 084119 (2005).                           |
 |                                                               |
 |          in all publications arising from your use of ONETEP. |
 |                                                               |
 +---------------------------------------------------------------+
 |                                                               |
 |   ONETEP is based on developments described in the following  |
 |   publications:                                               |
 |                                                               |
 |  "Nonorthogonal generalized Wannier function pseudopotential  |
 |   plane-wave method".                                         |
 |   C.-K. Skylaris, A. A. Mostofi, P. D. Haynes, O. Dieguez,    |
 |   M. C. Payne.                                                |
 |   Phys. Rev. B 66 035119 (2002).                              |
 |                                                               |
 |  "Preconditioned iterative minimization for linear-scaling    |
 |   electronic structure calculations".                         |
 |   A. A. Mostofi, P. D. Haynes, C.-K. Skylaris, M. C. Payne.   |
 |   J. Chem. Phys. 119(17), pp.8842-8848 (2003).                |
 |                                                               |
 |  "Total-energy calculations on a real space grid with         |
 |   localized functions and a plane-wave basis".                |
 |   A. A. Mostofi, C.-K. Skylaris, P. D. Haynes, M. C. Payne.   |
 |   Comput. Phys. Commun. 147, pp.788-802 (2002).               |
 |                                                               |
 |  "Accurate kinetic energy evaluation in electronic structure  |
 |   calculations with localized functions on real space grids"  |
 |   C.-K. Skylaris, A. A. Mostofi, P. D. Haynes, C. J. Pickard, |
 |   M. C. Payne.                                                |
 |   Comput. Phys. Commun. 140, pp.315-322 (2001).               |
 |                                                               |
 |  "Accurate ionic forces and geometry optimization in linear-  |
 |   scaling density-functional theory with local orbitals"      |
 |   N. D. M. Hine, M. Robinson, P. D. Haynes, C.-K. Skylaris,   |
 |   M. C. Payne, and A. A. Mostofi.                             |
 |   Phys. Rev. B 83 195102 (2011).                              |
 |                                                               |
 +---------------------------------------------------------------+

Job started: 06-03-2020 02:45 (-0000)
 
Reading parameters from file "4.427248_GO_manual_4x64graphite.dat" ...

WARNING: "cutoff_energy" not specified, but "psinc_spacing" specified.
         Using the latter to set the KE cutoff energy to  732.32021eV,
         thus *overriding* the default.

... done

If your calculation crashes here, before "Checking processes and threads..."
is displayed, then your stack size is insufficient.
If so, use "ulimit -s unlimited" at runtime.
You can disable this check with "check_stack_size F".

Checking processes and threads...
   Determining the default number of threads...
      No default threads set at compilation time: defaulting to 1.
      OpenMP library call suggests 4 threads.
      Hybrid MPI-OpenMP compilation detected.
      Number of MPI processes > 1.
      OMP_NUM_THREADS environment variable present and
      its value matches the one obtained from the OpenMP library call.
      Using this value as default.
      Default threads: 4
      Default applies to threads_max and threads_num_fftboxes.
      Settings in the input file override this default.
   ... done

   Running with 40 MPI processes.
   There are 10 MPI processes running on the same node as the root process.
   Each MPI process is using: 
               1 threads for simulation cell FFTs.
               1 threads for parallel FFT box operations.
               4 threads for loops over batched FFT box operations.
               4 threads in other parallel regions.
... done

Basic input checks...
Resetting ngwf_cg_rotate to TRUE for EDFT calculations
... done

Reading geometry and species blocks from file "4.427248_GO_manual_4x64graphite.dat" ...
    
  PSINC grid spacing along a1 set to   0.511215680000a0 from input file.
  PSINC grid spacing along a2 set to   0.531284090000a0 from input file.
  PSINC grid spacing along a3 set to   0.507048690000a0 from input file.
  Number of PPD points along a3 set to 1.  This is 
  the default value, it may have been provided also in the input file.
... done
 Writing xyz coordinates to file "4.427248_GO_manual_4x64graphite.xyz" ... done


--------------------------------------------------------------------------------
---------------------------------- INPUT FILE ----------------------------------
--------------------------------------------------------------------------------

task : singlepoint                                                              
do_properties : true                                                            
dx_format T                                                                     
edft T                                                                          
output_detail VERBOSE                                                           
write_xyz T                                                                     
xc_functional VDWDF2                                                            
PSINC_SPACING 0.51121568 0.53128409 0.50704869                                  
paw T                                                                           
pdos_max_l = 2                                                                  
dos_smear  0.1 eV                                                               
popn_calculate T                                                                
PDOS_PSEUDOATOMIC T                                                             
PDOS_REDUCE_SWS F                                                               
PDOS_CONSTRUCT_BASIS F                                                          
PDOS_LOWDIN T                                                                   
PDOS_ORTH_ATOM_BLOCKS F                                                         
PDOS_LCAO_OPTIMIZE F                                                            
pdos_optados_output T                                                           
homo_plot 0                                                                     
lumo_plot 0                                                                     
homo_dens_plot -1                                                               
lumo_dens_plot -1                                                               
%BLOCK SPECIES                                                                  
C C 6 4 9.0                                                                     
%ENDBLOCK SPECIES                                                               
%BLOCK SPECIES_POT                                                              
C "~/pp/paw/c_pbe_abinit.paw"                                                   
%ENDBLOCK SPECIES_POT                                                           
%BLOCK SPECIES_ATOMIC_SET                                                       
C "SOLVE conf=2s2 2p2"                                                          
%ENDBLOCK SPECIES_ATOMIC_SET                                                    
%BLOCK LATTICE_CART                                                             
32.21  0.00  0.00                                                               
0.00 18.59  0.00                                                                
0.00  0.00 83.66                                                                
%ENDBLOCK LATTICE_CART                                                          
%BLOCK POSITIONS_ABS                                                            
C  0.00  0.00  4.18                                                             
C  0.00  0.00 20.92                                                             
C  0.00  0.00 37.65                                                             
C  0.00  0.00 54.38                                                             
C  0.00  0.00 71.11                                                             
C  0.00  4.65  4.18                                                             
C  0.00  4.65 20.92                                                             
C  0.00  4.65 37.65                                                             
C  0.00  4.65 54.38                                                             
C  0.00  4.65 71.11                                                             
C  4.03  2.32  4.18                                                             
C  4.03  2.32 20.92                                                             
C  4.03  2.32 37.65                                                             
C  4.03  2.32 54.38                                                             
C  4.03  2.32 71.11                                                             
C  8.05  0.00  4.18                                                             
C  8.05  0.00 20.92                                                             
C  8.05  0.00 37.65                                                             
C  8.05  0.00 54.38                                                             
C  8.05  0.00 71.11                                                             
C  0.00  9.30  4.18                                                             
C  0.00  9.30 20.92                                                             
C  0.00  9.30 37.65                                                             
C  0.00  9.30 54.38                                                             
C  0.00  9.30 71.11                                                             
C  4.03  6.97  4.18                                                             
C  4.03  6.97 20.92                                                             
C  4.03  6.97 37.65                                                             
C  4.03  6.97 54.38                                                             
C  4.03  6.97 71.11                                                             
C  8.05  4.65  4.18                                                             
C  8.05  4.65 20.92                                                             
C  8.05  4.65 37.65                                                             
C  8.05  4.65 54.38                                                             
C  8.05  4.65 71.11                                                             
C 12.08  2.32  4.18                                                             
C 12.08  2.32 20.92                                                             
C 12.08  2.32 37.65                                                             
C 12.08  2.32 54.38                                                             
C 12.08  2.32 71.11                                                             
C 16.10  0.00  4.18                                                             
C 16.10  0.00 20.92                                                             
C 16.10  0.00 37.65                                                             
C 16.10  0.00 54.38                                                             
C 16.10  0.00 71.11                                                             
C  0.00 13.95  4.18                                                             
C  0.00 13.95 20.92                                                             
C  0.00 13.95 37.65                                                             
C  0.00 13.95 54.38                                                             
C  0.00 13.95 71.11                                                             
C  4.03 11.62  4.18                                                             
C  4.03 11.62 20.92                                                             
C  4.03 11.62 37.65                                                             
C  4.03 11.62 54.38                                                             
C  4.03 11.62 71.11                                                             
C  8.05  9.30  4.18                                                             
C  8.05  9.30 20.92                                                             
C  8.05  9.30 37.65                                                             
C  8.05  9.30 54.38                                                             
C  8.05  9.30 71.11                                                             
C 12.08  6.97  4.18                                                             
C 12.08  6.97 20.92                                                             
C 12.08  6.97 37.65                                                             
C 12.08  6.97 54.38                                                             
C 12.08  6.97 71.11                                                             
C 16.10  4.65  4.18                                                             
C 16.10  4.65 20.92                                                             
C 16.10  4.65 37.65                                                             
C 16.10  4.65 54.38                                                             
C 16.10  4.65 71.11                                                             
C 20.13  2.32  4.18                                                             
C 20.13  2.32 20.92                                                             
C 20.13  2.32 37.65                                                             
C 20.13  2.32 54.38                                                             
C 20.13  2.32 71.11                                                             
C 24.16  0.00  4.18                                                             
C 24.16  0.00 20.92                                                             
C 24.16  0.00 37.65                                                             
C 24.16  0.00 54.38                                                             
C 24.16  0.00 71.11                                                             
C  4.03 16.27  4.18                                                             
C  4.03 16.27 20.92                                                             
C  4.03 16.27 37.65                                                             
C  4.03 16.27 54.38                                                             
C  4.03 16.27 71.11                                                             
C  8.05 13.95  4.18                                                             
C  8.05 13.95 20.92                                                             
C  8.05 13.95 37.65                                                             
C  8.05 13.95 54.38                                                             
C  8.05 13.95 71.11                                                             
C 12.08 11.62  4.18                                                             
C 12.08 11.62 20.92                                                             
C 12.08 11.62 37.65                                                             
C 12.08 11.62 54.38                                                             
C 12.08 11.62 71.11                                                             
C 16.10  9.30  4.18                                                             
C 16.10  9.30 20.92                                                             
C 16.10  9.30 37.65                                                             
C 16.10  9.30 54.38                                                             
C 16.10  9.30 71.11                                                             
C 20.13  6.97  4.18                                                             
C 20.13  6.97 20.92                                                             
C 20.13  6.97 37.65                                                             
C 20.13  6.97 54.38                                                             
C 20.13  6.97 71.11                                                             
C 24.16  4.65  4.18                                                             
C 24.16  4.65 20.92                                                             
C 24.16  4.65 37.65                                                             
C 24.16  4.65 54.38                                                             
C 24.16  4.65 71.11                                                             
C 28.18  2.32  4.18                                                             
C 28.18  2.32 20.92                                                             
C 28.18  2.32 37.65                                                             
C 28.18  2.32 54.38                                                             
C 28.18  2.32 71.11                                                             
C 12.08 16.27  4.18                                                             
C 12.08 16.27 20.92                                                             
C 12.08 16.27 37.65                                                             
C 12.08 16.27 54.38                                                             
C 12.08 16.27 71.11                                                             
C 16.10 13.95  4.18                                                             
C 16.10 13.95 20.92                                                             
C 16.10 13.95 37.65                                                             
C 16.10 13.95 54.38                                                             
C 16.10 13.95 71.11                                                             
C 20.13 11.62  4.18                                                             
C 20.13 11.62 20.92                                                             
C 20.13 11.62 37.65                                                             
C 20.13 11.62 54.38                                                             
C 20.13 11.62 71.11                                                             
C 24.16  9.30  4.18                                                             
C 24.16  9.30 20.92                                                             
C 24.16  9.30 37.65                                                             
C 24.16  9.30 54.38                                                             
C 24.16  9.30 71.11                                                             
C 28.18  6.97  4.18                                                             
C 28.18  6.97 20.92                                                             
C 28.18  6.97 37.65                                                             
C 28.18  6.97 54.38                                                             
C 28.18  6.97 71.11                                                             
C 20.13 16.27  4.18                                                             
C 20.13 16.27 20.92                                                             
C 20.13 16.27 37.65                                                             
C 20.13 16.27 54.38                                                             
C 20.13 16.27 71.11                                                             
C 24.16 13.95  4.18                                                             
C 24.16 13.95 20.92                                                             
C 24.16 13.95 37.65                                                             
C 24.16 13.95 54.38                                                             
C 24.16 13.95 71.11                                                             
C 28.18 11.62  4.18                                                             
C 28.18 11.62 20.92                                                             
C 28.18 11.62 37.65                                                             
C 28.18 11.62 54.38                                                             
C 28.18 11.62 71.11                                                             
C 28.18 16.27  4.18                                                             
C 28.18 16.27 20.92                                                             
C 28.18 16.27 37.65                                                             
C 28.18 16.27 54.38                                                             
C 28.18 16.27 71.11                                                             
C  0.00  0.00 12.55                                                             
C  0.00  0.00 29.28                                                             
C  0.00  0.00 46.01                                                             
C  0.00  0.00 62.75                                                             
C  0.00  0.00 79.48                                                             
C  0.00  4.65 12.55                                                             
C  0.00  4.65 29.28                                                             
C  0.00  4.65 46.01                                                             
C  0.00  4.65 62.75                                                             
C  0.00  4.65 79.48                                                             
C  4.03  2.32 12.55                                                             
C  4.03  2.32 29.28                                                             
C  4.03  2.32 46.01                                                             
C  4.03  2.32 62.75                                                             
C  4.03  2.32 79.48                                                             
C  8.05  0.00 12.55                                                             
C  8.05  0.00 29.28                                                             
C  8.05  0.00 46.01                                                             
C  8.05  0.00 62.75                                                             
C  8.05  0.00 79.48                                                             
C  0.00  9.30 12.55                                                             
C  0.00  9.30 29.28                                                             
C  0.00  9.30 46.01                                                             
C  0.00  9.30 62.75                                                             
C  0.00  9.30 79.48                                                             
C  4.03  6.97 12.55                                                             
C  4.03  6.97 29.28                                                             
C  4.03  6.97 46.01                                                             
C  4.03  6.97 62.75                                                             
C  4.03  6.97 79.48                                                             
C  8.05  4.65 12.55                                                             
C  8.05  4.65 29.28                                                             
C  8.05  4.65 46.01                                                             
C  8.05  4.65 62.75                                                             
C  8.05  4.65 79.48                                                             
C 12.08  2.32 12.55                                                             
C 12.08  2.32 29.28                                                             
C 12.08  2.32 46.01                                                             
C 12.08  2.32 62.75                                                             
C 12.08  2.32 79.48                                                             
C 16.10  0.00 12.55                                                             
C 16.10  0.00 29.28                                                             
C 16.10  0.00 46.01                                                             
C 16.10  0.00 62.75                                                             
C 16.10  0.00 79.48                                                             
C  0.00 13.95 12.55                                                             
C  0.00 13.95 29.28                                                             
C  0.00 13.95 46.01                                                             
C  0.00 13.95 62.75                                                             
C  0.00 13.95 79.48                                                             
C  4.03 11.62 12.55                                                             
C  4.03 11.62 29.28                                                             
C  4.03 11.62 46.01                                                             
C  4.03 11.62 62.75                                                             
C  4.03 11.62 79.48                                                             
C  8.05  9.30 12.55                                                             
C  8.05  9.30 29.28                                                             
C  8.05  9.30 46.01                                                             
C  8.05  9.30 62.75                                                             
C  8.05  9.30 79.48                                                             
C 12.08  6.97 12.55                                                             
C 12.08  6.97 29.28                                                             
C 12.08  6.97 46.01                                                             
C 12.08  6.97 62.75                                                             
C 12.08  6.97 79.48                                                             
C 16.10  4.65 12.55                                                             
C 16.10  4.65 29.28                                                             
C 16.10  4.65 46.01                                                             
C 16.10  4.65 62.75                                                             
C 16.10  4.65 79.48                                                             
C 20.13  2.32 12.55                                                             
C 20.13  2.32 29.28                                                             
C 20.13  2.32 46.01                                                             
C 20.13  2.32 62.75                                                             
C 20.13  2.32 79.48                                                             
C 24.16  0.00 12.55                                                             
C 24.16  0.00 29.28                                                             
C 24.16  0.00 46.01                                                             
C 24.16  0.00 62.75                                                             
C 24.16  0.00 79.48                                                             
C  4.03 16.27 12.55                                                             
C  4.03 16.27 29.28                                                             
C  4.03 16.27 46.01                                                             
C  4.03 16.27 62.75                                                             
C  4.03 16.27 79.48                                                             
C  8.05 13.95 12.55                                                             
C  8.05 13.95 29.28                                                             
C  8.05 13.95 46.01                                                             
C  8.05 13.95 62.75                                                             
C  8.05 13.95 79.48                                                             
C 12.08 11.62 12.55                                                             
C 12.08 11.62 29.28                                                             
C 12.08 11.62 46.01                                                             
C 12.08 11.62 62.75                                                             
C 12.08 11.62 79.48                                                             
C 16.10  9.30 12.55                                                             
C 16.10  9.30 29.28                                                             
C 16.10  9.30 46.01                                                             
C 16.10  9.30 62.75                                                             
C 16.10  9.30 79.48                                                             
C 20.13  6.97 12.55                                                             
C 20.13  6.97 29.28                                                             
C 20.13  6.97 46.01                                                             
C 20.13  6.97 62.75                                                             
C 20.13  6.97 79.48                                                             
C 24.16  4.65 12.55                                                             
C 24.16  4.65 29.28                                                             
C 24.16  4.65 46.01                                                             
C 24.16  4.65 62.75                                                             
C 24.16  4.65 79.48                                                             
C 28.18  2.32 12.55                                                             
C 28.18  2.32 29.28                                                             
C 28.18  2.32 46.01                                                             
C 28.18  2.32 62.75                                                             
C 28.18  2.32 79.48                                                             
C 12.08 16.27 12.55                                                             
C 12.08 16.27 29.28                                                             
C 12.08 16.27 46.01                                                             
C 12.08 16.27 62.75                                                             
C 12.08 16.27 79.48                                                             
C 16.10 13.95 12.55                                                             
C 16.10 13.95 29.28                                                             
C 16.10 13.95 46.01                                                             
C 16.10 13.95 62.75                                                             
C 16.10 13.95 79.48                                                             
C 20.13 11.62 12.55                                                             
C 20.13 11.62 29.28                                                             
C 20.13 11.62 46.01                                                             
C 20.13 11.62 62.75                                                             
C 20.13 11.62 79.48                                                             
C 24.16  9.30 12.55                                                             
C 24.16  9.30 29.28                                                             
C 24.16  9.30 46.01                                                             
C 24.16  9.30 62.75                                                             
C 24.16  9.30 79.48                                                             
C 28.18  6.97 12.55                                                             
C 28.18  6.97 29.28                                                             
C 28.18  6.97 46.01                                                             
C 28.18  6.97 62.75                                                             
C 28.18  6.97 79.48                                                             
C 20.13 16.27 12.55                                                             
C 20.13 16.27 29.28                                                             
C 20.13 16.27 46.01                                                             
C 20.13 16.27 62.75                                                             
C 20.13 16.27 79.48                                                             
C 24.16 13.95 12.55                                                             
C 24.16 13.95 29.28                                                             
C 24.16 13.95 46.01                                                             
C 24.16 13.95 62.75                                                             
C 24.16 13.95 79.48                                                             
C 28.18 11.62 12.55                                                             
C 28.18 11.62 29.28                                                             
C 28.18 11.62 46.01                                                             
C 28.18 11.62 62.75                                                             
C 28.18 11.62 79.48                                                             
C 28.18 16.27 12.55                                                             
C 28.18 16.27 29.28                                                             
C 28.18 16.27 46.01                                                             
C 28.18 16.27 62.75                                                             
C 28.18 16.27 79.48                                                             
C  1.34  2.32  4.18                                                             
C  1.34  2.32 20.92                                                             
C  1.34  2.32 37.65                                                             
C  1.34  2.32 54.38                                                             
C  1.34  2.32 71.11                                                             
C  5.37  0.00  4.18                                                             
C  5.37  0.00 20.92                                                             
C  5.37  0.00 37.65                                                             
C  5.37  0.00 54.38                                                             
C  5.37  0.00 71.11                                                             
C  1.34  6.97  4.18                                                             
C  1.34  6.97 20.92                                                             
C  1.34  6.97 37.65                                                             
C  1.34  6.97 54.38                                                             
C  1.34  6.97 71.11                                                             
C  5.37  4.65  4.18                                                             
C  5.37  4.65 20.92                                                             
C  5.37  4.65 37.65                                                             
C  5.37  4.65 54.38                                                             
C  5.37  4.65 71.11                                                             
C  9.39  2.32  4.18                                                             
C  9.39  2.32 20.92                                                             
C  9.39  2.32 37.65                                                             
C  9.39  2.32 54.38                                                             
C  9.39  2.32 71.11                                                             
C 13.42  0.00  4.18                                                             
C 13.42  0.00 20.92                                                             
C 13.42  0.00 37.65                                                             
C 13.42  0.00 54.38                                                             
C 13.42  0.00 71.11                                                             
C  1.34 11.62  4.18                                                             
C  1.34 11.62 20.92                                                             
C  1.34 11.62 37.65                                                             
C  1.34 11.62 54.38                                                             
C  1.34 11.62 71.11                                                             
C  5.37  9.30  4.18                                                             
C  5.37  9.30 20.92                                                             
C  5.37  9.30 37.65                                                             
C  5.37  9.30 54.38                                                             
C  5.37  9.30 71.11                                                             
C  9.39  6.97  4.18                                                             
C  9.39  6.97 20.92                                                             
C  9.39  6.97 37.65                                                             
C  9.39  6.97 54.38                                                             
C  9.39  6.97 71.11                                                             
C 13.42  4.65  4.18                                                             
C 13.42  4.65 20.92                                                             
C 13.42  4.65 37.65                                                             
C 13.42  4.65 54.38                                                             
C 13.42  4.65 71.11                                                             
C 17.45  2.32  4.18                                                             
C 17.45  2.32 20.92                                                             
C 17.45  2.32 37.65                                                             
C 17.45  2.32 54.38                                                             
C 17.45  2.32 71.11                                                             
C 21.47  0.00  4.18                                                             
C 21.47  0.00 20.92                                                             
C 21.47  0.00 37.65                                                             
C 21.47  0.00 54.38                                                             
C 21.47  0.00 71.11                                                             
C  1.34 16.27  4.18                                                             
C  1.34 16.27 20.92                                                             
C  1.34 16.27 37.65                                                             
C  1.34 16.27 54.38                                                             
C  1.34 16.27 71.11                                                             
C  5.37 13.95  4.18                                                             
C  5.37 13.95 20.92                                                             
C  5.37 13.95 37.65                                                             
C  5.37 13.95 54.38                                                             
C  5.37 13.95 71.11                                                             
C  9.39 11.62  4.18                                                             
C  9.39 11.62 20.92                                                             
C  9.39 11.62 37.65                                                             
C  9.39 11.62 54.38                                                             
C  9.39 11.62 71.11                                                             
C 13.42  9.30  4.18                                                             
C 13.42  9.30 20.92                                                             
C 13.42  9.30 37.65                                                             
C 13.42  9.30 54.38                                                             
C 13.42  9.30 71.11                                                             
C 17.45  6.97  4.18                                                             
C 17.45  6.97 20.92                                                             
C 17.45  6.97 37.65                                                             
C 17.45  6.97 54.38                                                             
C 17.45  6.97 71.11                                                             
C 21.47  4.65  4.18                                                             
C 21.47  4.65 20.92                                                             
C 21.47  4.65 37.65                                                             
C 21.47  4.65 54.38                                                             
C 21.47  4.65 71.11                                                             
C 25.50  2.32  4.18                                                             
C 25.50  2.32 20.92                                                             
C 25.50  2.32 37.65                                                             
C 25.50  2.32 54.38                                                             
C 25.50  2.32 71.11                                                             
C 29.52  0.00  4.18                                                             
C 29.52  0.00 20.92                                                             
C 29.52  0.00 37.65                                                             
C 29.52  0.00 54.38                                                             
C 29.52  0.00 71.11                                                             
C  9.39 16.27  4.18                                                             
C  9.39 16.27 20.92                                                             
C  9.39 16.27 37.65                                                             
C  9.39 16.27 54.38                                                             
C  9.39 16.27 71.11                                                             
C 13.42 13.95  4.18                                                             
C 13.42 13.95 20.92                                                             
C 13.42 13.95 37.65                                                             
C 13.42 13.95 54.38                                                             
C 13.42 13.95 71.11                                                             
C 17.45 11.62  4.18                                                             
C 17.45 11.62 20.92                                                             
C 17.45 11.62 37.65                                                             
C 17.45 11.62 54.38                                                             
C 17.45 11.62 71.11                                                             
C 21.47  9.30  4.18                                                             
C 21.47  9.30 20.92                                                             
C 21.47  9.30 37.65                                                             
C 21.47  9.30 54.38                                                             
C 21.47  9.30 71.11                                                             
C 25.50  6.97  4.18                                                             
C 25.50  6.97 20.92                                                             
C 25.50  6.97 37.65                                                             
C 25.50  6.97 54.38                                                             
C 25.50  6.97 71.11                                                             
C 29.52  4.65  4.18                                                             
C 29.52  4.65 20.92                                                             
C 29.52  4.65 37.65                                                             
C 29.52  4.65 54.38                                                             
C 29.52  4.65 71.11                                                             
C 17.45 16.27  4.18                                                             
C 17.45 16.27 20.92                                                             
C 17.45 16.27 37.65                                                             
C 17.45 16.27 54.38                                                             
C 17.45 16.27 71.11                                                             
C 21.47 13.95  4.18                                                             
C 21.47 13.95 20.92                                                             
C 21.47 13.95 37.65                                                             
C 21.47 13.95 54.38                                                             
C 21.47 13.95 71.11                                                             
C 25.50 11.62  4.18                                                             
C 25.50 11.62 20.92                                                             
C 25.50 11.62 37.65                                                             
C 25.50 11.62 54.38                                                             
C 25.50 11.62 71.11                                                             
C 29.52  9.30  4.18                                                             
C 29.52  9.30 20.92                                                             
C 29.52  9.30 37.65                                                             
C 29.52  9.30 54.38                                                             
C 29.52  9.30 71.11                                                             
C 25.50 16.27  4.18                                                             
C 25.50 16.27 20.92                                                             
C 25.50 16.27 37.65                                                             
C 25.50 16.27 54.38                                                             
C 25.50 16.27 71.11                                                             
C 29.52 13.95  4.18                                                             
C 29.52 13.95 20.92                                                             
C 29.52 13.95 37.65                                                             
C 29.52 13.95 54.38                                                             
C 29.52 13.95 71.11                                                             
C  2.68  0.00 12.55                                                             
C  2.68  0.00 29.28                                                             
C  2.68  0.00 46.01                                                             
C  2.68  0.00 62.75                                                             
C  2.68  0.00 79.48                                                             
C  2.68  4.65 12.55                                                             
C  2.68  4.65 29.28                                                             
C  2.68  4.65 46.01                                                             
C  2.68  4.65 62.75                                                             
C  2.68  4.65 79.48                                                             
C  6.71  2.32 12.55                                                             
C  6.71  2.32 29.28                                                             
C  6.71  2.32 46.01                                                             
C  6.71  2.32 62.75                                                             
C  6.71  2.32 79.48                                                             
C 10.74  0.00 12.55                                                             
C 10.74  0.00 29.28                                                             
C 10.74  0.00 46.01                                                             
C 10.74  0.00 62.75                                                             
C 10.74  0.00 79.48                                                             
C  2.68  9.30 12.55                                                             
C  2.68  9.30 29.28                                                             
C  2.68  9.30 46.01                                                             
C  2.68  9.30 62.75                                                             
C  2.68  9.30 79.48                                                             
C  6.71  6.97 12.55                                                             
C  6.71  6.97 29.28                                                             
C  6.71  6.97 46.01                                                             
C  6.71  6.97 62.75                                                             
C  6.71  6.97 79.48                                                             
C 10.74  4.65 12.55                                                             
C 10.74  4.65 29.28                                                             
C 10.74  4.65 46.01                                                             
C 10.74  4.65 62.75                                                             
C 10.74  4.65 79.48                                                             
C 14.76  2.32 12.55                                                             
C 14.76  2.32 29.28                                                             
C 14.76  2.32 46.01                                                             
C 14.76  2.32 62.75                                                             
C 14.76  2.32 79.48                                                             
C 18.79  0.00 12.55                                                             
C 18.79  0.00 29.28                                                             
C 18.79  0.00 46.01                                                             
C 18.79  0.00 62.75                                                             
C 18.79  0.00 79.48                                                             
C  2.68 13.95 12.55                                                             
C  2.68 13.95 29.28                                                             
C  2.68 13.95 46.01                                                             
C  2.68 13.95 62.75                                                             
C  2.68 13.95 79.48                                                             
C  6.71 11.62 12.55                                                             
C  6.71 11.62 29.28                                                             
C  6.71 11.62 46.01                                                             
C  6.71 11.62 62.75                                                             
C  6.71 11.62 79.48                                                             
C 10.74  9.30 12.55                                                             
C 10.74  9.30 29.28                                                             
C 10.74  9.30 46.01                                                             
C 10.74  9.30 62.75                                                             
C 10.74  9.30 79.48                                                             
C 14.76  6.97 12.55                                                             
C 14.76  6.97 29.28                                                             
C 14.76  6.97 46.01                                                             
C 14.76  6.97 62.75                                                             
C 14.76  6.97 79.48                                                             
C 18.79  4.65 12.55                                                             
C 18.79  4.65 29.28                                                             
C 18.79  4.65 46.01                                                             
C 18.79  4.65 62.75                                                             
C 18.79  4.65 79.48                                                             
C 22.81  2.32 12.55                                                             
C 22.81  2.32 29.28                                                             
C 22.81  2.32 46.01                                                             
C 22.81  2.32 62.75                                                             
C 22.81  2.32 79.48                                                             
C 26.84  0.00 12.55                                                             
C 26.84  0.00 29.28                                                             
C 26.84  0.00 46.01                                                             
C 26.84  0.00 62.75                                                             
C 26.84  0.00 79.48                                                             
C  6.71 16.27 12.55                                                             
C  6.71 16.27 29.28                                                             
C  6.71 16.27 46.01                                                             
C  6.71 16.27 62.75                                                             
C  6.71 16.27 79.48                                                             
C 10.74 13.95 12.55                                                             
C 10.74 13.95 29.28                                                             
C 10.74 13.95 46.01                                                             
C 10.74 13.95 62.75                                                             
C 10.74 13.95 79.48                                                             
C 14.76 11.62 12.55                                                             
C 14.76 11.62 29.28                                                             
C 14.76 11.62 46.01                                                             
C 14.76 11.62 62.75                                                             
C 14.76 11.62 79.48                                                             
C 18.79  9.30 12.55                                                             
C 18.79  9.30 29.28                                                             
C 18.79  9.30 46.01                                                             
C 18.79  9.30 62.75                                                             
C 18.79  9.30 79.48                                                             
C 22.81  6.97 12.55                                                             
C 22.81  6.97 29.28                                                             
C 22.81  6.97 46.01                                                             
C 22.81  6.97 62.75                                                             
C 22.81  6.97 79.48                                                             
C 26.84  4.65 12.55                                                             
C 26.84  4.65 29.28                                                             
C 26.84  4.65 46.01                                                             
C 26.84  4.65 62.75                                                             
C 26.84  4.65 79.48                                                             
C 30.86  2.32 12.55                                                             
C 30.86  2.32 29.28                                                             
C 30.86  2.32 46.01                                                             
C 30.86  2.32 62.75                                                             
C 30.86  2.32 79.48                                                             
C 14.76 16.27 12.55                                                             
C 14.76 16.27 29.28                                                             
C 14.76 16.27 46.01                                                             
C 14.76 16.27 62.75                                                             
C 14.76 16.27 79.48                                                             
C 18.79 13.95 12.55                                                             
C 18.79 13.95 29.28                                                             
C 18.79 13.95 46.01                                                             
C 18.79 13.95 62.75                                                             
C 18.79 13.95 79.48                                                             
C 22.81 11.62 12.55                                                             
C 22.81 11.62 29.28                                                             
C 22.81 11.62 46.01                                                             
C 22.81 11.62 62.75                                                             
C 22.81 11.62 79.48                                                             
C 26.84  9.30 12.55                                                             
C 26.84  9.30 29.28                                                             
C 26.84  9.30 46.01                                                             
C 26.84  9.30 62.75                                                             
C 26.84  9.30 79.48                                                             
C 30.86  6.97 12.55                                                             
C 30.86  6.97 29.28                                                             
C 30.86  6.97 46.01                                                             
C 30.86  6.97 62.75                                                             
C 30.86  6.97 79.48                                                             
C 22.81 16.27 12.55                                                             
C 22.81 16.27 29.28                                                             
C 22.81 16.27 46.01                                                             
C 22.81 16.27 62.75                                                             
C 22.81 16.27 79.48                                                             
C 26.84 13.95 12.55                                                             
C 26.84 13.95 29.28                                                             
C 26.84 13.95 46.01                                                             
C 26.84 13.95 62.75                                                             
C 26.84 13.95 79.48                                                             
C 30.86 11.62 12.55                                                             
C 30.86 11.62 29.28                                                             
C 30.86 11.62 46.01                                                             
C 30.86 11.62 62.75                                                             
C 30.86 11.62 79.48                                                             
C 30.86 16.27 12.55                                                             
C 30.86 16.27 29.28                                                             
C 30.86 16.27 46.01                                                             
C 30.86 16.27 62.75                                                             
C 30.86 16.27 79.48                                                             
%ENDBLOCK POSITIONS_ABS                                                         

--------------------------------------------------------------------------------
-------------------------------- END INPUT FILE --------------------------------
--------------------------------------------------------------------------------


 
<<<<<<<<<<<<<<<<<<<<<<<<<<<<<<<<< Full system >>>>>>>>>>>>>>>>>>>>>>>>>>>>>>>>>>
<<<<<<<<<<<<<<<<<<<<<<<<<<< PAW Dataset information >>>>>>>>>>>>>>>>>>>>>>>>>>>
File: ~/pp/paw/c_pbe_abinit.paw; rc = 1.25 bohr; shape type =  3; rshape = 1.25 bohr;
  Atomic number:  6;  ionic charge:  4.000000
    Partial Wave 1: l = 0
    Partial Wave 2: l = 0
    Partial Wave 3: l = 1
    Partial Wave 4: l = 1
  Core charge supplied for Nonlinear Core Corrections
<<<<<<<<<<<<<<<<<<<<<<<<<<<<<<<<<<<<<<< >>>>>>>>>>>>>>>>>>>>>>>>>>>>>>>>>>>>>>>

-------------------------- Atom counting information ---------------------------
Symbol    Natoms    Nngwfs    Nprojs
  C        640      2560      5120
.......   ......    ......    ......
Totals:    640      2560      5120
--------------------------------------------------------------------------------

=============================== PSINC grid sizes ===============================
                      Simulation cell:   63 x  35 x 165
                              FFT-box:   63 x  35 x 117
                                  PPD:    7 x   5 x   1
Grid space d1=  0.511269841270a0 (KE cutoff=  29.06054Eh = 790.77748eV)
Grid space d2=  0.531142857143a0 (KE cutoff=  26.92659Eh = 732.70972eV)
Grid space d3=  0.507030303030a0 (KE cutoff=  29.54855Eh = 804.05695eV)
================================================================================
  
WARNING in cell_grid_distribute:
Average of less than one 23-slab per node, so workload cannot be
equally balanced between nodes.

********************* Fourier parallelisation information **********************
       Coarse grid (whole simulation cell) dimensions:     63    35   165
          Real-space ('12') slabs/node (min max mean):      4     5     4
         Recip-space ('23') slabs/node (min max mean):      0     1     0
********************************************************************************

********************* Fourier parallelisation information **********************
       Double grid (whole simulation cell) dimensions:    126    70   330
          Real-space ('12') slabs/node (min max mean):      8     9     8
         Recip-space ('23') slabs/node (min max mean):      1     2     1
********************************************************************************

Atom SCF Calculation for C  : Z (AE atom) =   6 : Z (PS atom) =   4
Config String: 2s2 2p2
Orbitals (num,occ):  2     2.00 2.00
Orbitals   (num,l):  2        0    1
Real-space Grid (nr,dr,rmax): 1293    0.0069659443    9.0000000000
Spherical Bessel Basis (nsws,lmax,cutoff):   37    2  161.4736382572
Confining potential (l,width,scale):  0    3.0000000000  100.0000000000
Confining potential (l,width,scale):  1    3.0000000000  100.0000000000
  1         -5.4691149987   -1.3647045835    4.5135257941   -1.6713568800
  2         -5.5214542834   -1.4154291535    4.4635199061   -1.6585170582
  3         -5.5221055910   -1.4439161209    4.4342087028   -1.6520281659
  4         -5.5287901521   -1.4522301802    4.4259176063   -1.6507873939
  5         -5.5308251003   -1.4557840400    4.4224142384   -1.6502632738
  6         -5.5317252094   -1.4571386008    4.4211068249   -1.6500892907
  7         -5.5320765973   -1.4576738924    4.4205997642   -1.6500256779
  8         -5.5322192721   -1.4578833190    4.4204056023   -1.6500032912
  9         -5.5322765240   -1.4579657561    4.4203308649   -1.6499954152
 10         -5.5322995843   -1.4579982639    4.4203020904   -1.6499927055
 11         -5.5323088576   -1.4580111317    4.4202909828   -1.6499917962
 12         -5.5323125859   -1.4580162439    4.4202866844   -1.6499915030
 13         -5.5323140836   -1.4580182832    4.4202850159   -1.6499914143
 14         -5.5323146847   -1.4580191002    4.4202843659   -1.6499913905
 15         -5.5323149258   -1.4580194290    4.4202841117   -1.6499913858
 16         -5.5323150224   -1.4580195619    4.4202840119   -1.6499913859
Atom SCF converged after  16 iterations to a total energy of     -5.53231502

Determining parallel strategy ...
... using space-filling curve
... NGWF load balancing: max     64;  min     64;  average     64
... Projector load balancing: max    128;  min    128;  average    128
... done
Calculating Ewald energy ...
              Ewald: real-space energy =    9582.422039
        Ewald: reciprocal-space energy =       2.462909
         Ewald: (sum_charge)**2 Energy =   10314.795418
         Ewald: (sum_charge**2) Energy =     815.456178
                          Ewald Energy =   -1545.366648
Basis initialisation ...... NGWF spheres initialised
... Projector spheres initialised
... NGWF tight boxes initialised
... Projector tight boxes initialised
... Tight-boxes gathered
... NGWF basis size (local,global):     692500  27888128
... PAW projector initialisation
... done

============================= Charge Augmentation ==============================
                           Aug box size:   11 x  11 x  11
================================================================================

========================== Sparse matrix information ===========================
                        Overlap matrix filling:  31.88%
                        Density kernel filling: 100.00%
              NGWF-Proj overlap matrix filling:   9.38%
                    Aug Overlap matrix filling:  39.53%
                    Hamiltonian matrix filling:  39.53%
                  NGWF diagonal matrix filling:   0.16%
                             KS matrix filling: 100.00% 
                           KSKS matrix filling: 100.00% 
================================================================================

Sparse matrix initialisation ... done
NGWF initialisation ...... done
============ Calculation of NGWF S^-1 using Hotelling algorithm ================ 
         Iteration  |  Frobenius norm and Maximum abs value    (of I-S*S_n^-1)   
               1       0.48778005E+02     0.97215453E+00
               2       0.47373926E+02     0.94629220E+00
               3       0.45340598E+02     0.89971619E+00
               4       0.42787715E+02     0.82282996E+00
               5       0.39774375E+02     0.71754940E+00
               6       0.36359764E+02     0.66486939E+00
               7       0.32910805E+02     0.61964764E+00
               8       0.29564524E+02     0.58002770E+00
               9       0.25767899E+02     0.53063307E+00
              10       0.20848732E+02     0.45045594E+00
              11       0.14576441E+02     0.32812651E+00
              12       0.78395803E+01     0.17958042E+00
              13       0.26407051E+01     0.58322900E-01
              14       0.35732653E+00     0.71860130E-02
              15       0.77053265E-02     0.13424641E-03
              16       0.46904860E-05     0.60179322E-07
              17       0.26739860E-11     0.22537527E-13
================================================================================
Calculating core density ...
================================= Core Density =================================
               Core den box size:   21 x  21 x  21
================================================================================
 ... done
Up spin density kernel initialisation ...... done

Writing density kernel to file "4.427248_GO_manual_4x64graphite.dkn" ... done

>>> Optimising kernel for current NGWFs:

--------------------------- Ensemble-DFT optimisation --------------------------
Running ScaLAPACK on   40 processor(s).

--------------------------------------------------------------------------------
  Iter                              Commutator    Free_energy(A=E-TS)     DeltaA
#    0                          0.000051512930   -3678.16149577645820  -3.68E+03

Step                       =       0.381966011250
Energy                     =   -3678.161465485120
Entropy (-TS)              =      -0.000030291487
Free energy (A=E-TS)       =   -3678.161495776458
Est. 0K Energy 0.5*(E+A)   =   -3678.161480630789
Residual Non-orthogonality =       0.000000000000
Residual N_electrons       =       0.000000000149

Spin          Integrated_Ne            Fermi_level     Delta_Fermi_level
   1      2559.999999998280         0.086365149340              8.64E-02

                           Spin 1          
     Orb      H-eigenvalues     Occupancies
       1 |    -0.6266069685    1.0000000000 | 
                          ------
    1276 |     0.0502811752    0.9999887420 | 
    1277 |     0.0502841818    0.9999887313 | 
    1278 |     0.0505766235    0.9999876411 | 
    1279 |     0.0505789570    0.9999876320 | 
    1280 |     0.0506998698    0.9999871507 | 
                 - Gap at zero temperature -
    1281 |     0.1226139583    0.0000106870 | 
    1282 |     0.1226154064    0.0000106821 | 
    1283 |     0.1226312208    0.0000106289 | 
    1284 |     0.1226325439    0.0000106245 | 
    1285 |     0.1226426307    0.0000105907 | 
                          ------
    2560 |     0.9060438225    0.0000000000 | 

                       |  Abs_value |  Threshold | Converged
     Delta_Free_energy |   3.68E+03 |   1.00E-06 |        No
     Delta_Energy      |   3.68E+03 |   1.00E-04 |        No
     Delta_Entropy     |   3.03E-05 |   1.00E-04 |       Yes
     Commutator        |   5.15E-05 |   1.00E-05 |        No
     Delta_Fermi_level |   8.64E-02 |   1.00E-03 |        No

  Line search of the free energy minimum:
  Step_type        Step             Free_energy   Predicted_free_energy
.   Initial    0.000000    -3678.16149577645820
.    Trial1    0.381966    -3678.16447185105426
.    Trial2    0.618034    -3678.16539787524471
. Quadratic    0.813325    -3678.16564065533839    -3678.16563661551891

--------------------------------------------------------------------------------
  Iter                              Commutator    Free_energy(A=E-TS)     DeltaA
#    1                          0.000022143552   -3678.16564065533839  -4.14E-03

Step                       =       0.813325317253
Energy                     =   -3678.165610501366
Entropy (-TS)              =      -0.000030153932
Free energy (A=E-TS)       =   -3678.165640655338
Est. 0K Energy 0.5*(E+A)   =   -3678.165625578352
Residual Non-orthogonality =       0.000000000000
Residual N_electrons       =      -0.000000000040

Spin          Integrated_Ne            Fermi_level     Delta_Fermi_level
   1      2560.000000000492         0.081018385179             -5.35E-03

                           Spin 1          
     Orb      H-eigenvalues     Occupancies
       1 |    -0.6361789698    1.0000000000 | 
                          ------
    1276 |     0.0448049977    0.9999891928 | 
    1277 |     0.0448064483    0.9999891878 | 
    1278 |     0.0450144261    0.9999884539 | 
    1279 |     0.0450176827    0.9999884420 | 
    1280 |     0.0451071030    0.9999881110 | 
                 - Gap at zero temperature -
    1281 |     0.1171893350    0.0000109530 | 
    1282 |     0.1171924742    0.0000109422 | 
    1283 |     0.1172026618    0.0000109070 | 
    1284 |     0.1172056676    0.0000108967 | 
    1285 |     0.1172150114    0.0000108646 | 
                          ------
    2560 |     0.8965489318    0.0000000000 | 

                       |  Abs_value |  Threshold | Converged
     Delta_Free_energy |   4.14E-03 |   1.00E-06 |        No
     Delta_Energy      |   4.15E-03 |   1.00E-04 |        No
     Delta_Entropy     |   1.38E-07 |   1.00E-04 |       Yes
     Commutator        |   2.21E-05 |   1.00E-05 |        No
     Delta_Fermi_level |   5.35E-03 |   1.00E-03 |        No

  Line search of the free energy minimum:
  Step_type        Step             Free_energy   Predicted_free_energy
.   Initial    0.000000    -3678.16564065533839
.    Trial1    0.813325    -3678.16363513282295
.    Trial2    0.310663    -3678.16611587129864
. Quadratic    0.251554    -3678.16614374077744    -3678.16614364305315

--------------------------------------------------------------------------------
  Iter                              Commutator    Free_energy(A=E-TS)     DeltaA
#    2                          0.000008470334   -3678.16614374077744  -5.03E-04

Step                       =       0.251553633715
Energy                     =   -3678.166113614761
Entropy (-TS)              =      -0.000030126200
Free energy (A=E-TS)       =   -3678.166143740777
Est. 0K Energy 0.5*(E+A)   =   -3678.166128677769
Residual Non-orthogonality =       0.000000000000
Residual N_electrons       =       0.000000000184

Spin          Integrated_Ne            Fermi_level     Delta_Fermi_level
   1      2559.999999997726         0.080735281045             -2.83E-04

                           Spin 1          
     Orb      H-eigenvalues     Occupancies
       1 |    -0.6367148657    1.0000000000 | 
                          ------
    1276 |     0.0445590875    0.9999890651 | 
    1277 |     0.0445603941    0.9999890606 | 
    1278 |     0.0447642092    0.9999883334 | 
    1279 |     0.0447671880    0.9999883224 | 
    1280 |     0.0448551164    0.9999879936 | 
                 - Gap at zero temperature -
    1281 |     0.1169496490    0.0000108039 | 
    1282 |     0.1169526770    0.0000107936 | 
    1283 |     0.1169627424    0.0000107593 | 
    1284 |     0.1169655467    0.0000107498 | 
    1285 |     0.1169745763    0.0000107192 | 
                          ------
    2560 |     0.8960199035    0.0000000000 | 

                       |  Abs_value |  Threshold | Converged
     Delta_Free_energy |   5.03E-04 |   1.00E-06 |        No
     Delta_Energy      |   5.03E-04 |   1.00E-04 |        No
     Delta_Entropy     |   2.77E-08 |   1.00E-04 |       Yes
     Commutator        |   8.47E-06 |   1.00E-05 |       Yes
     Delta_Fermi_level |   2.83E-04 |   1.00E-03 |       Yes

  Line search of the free energy minimum:
  Step_type        Step             Free_energy   Predicted_free_energy
.   Initial    0.000000    -3678.16614374077744
.    Trial1    0.251554    -3678.16620695874008
.    Trial2    0.537435    -3678.16621177130037
. Quadratic    0.413787    -3678.16621843743678    -3678.16621844162728

--------------------------------------------------------------------------------
  Iter                              Commutator    Free_energy(A=E-TS)     DeltaA
#    3                          0.000005054261   -3678.16621843743678  -7.47E-05

Step                       =       0.413786656804
Energy                     =   -3678.166188349025
Entropy (-TS)              =      -0.000030088267
Free energy (A=E-TS)       =   -3678.166218437437
Est. 0K Energy 0.5*(E+A)   =   -3678.166203393231
Residual Non-orthogonality =       0.000000000000
Residual N_electrons       =      -0.000000000145

Spin          Integrated_Ne            Fermi_level     Delta_Fermi_level
   1      2560.000000001804         0.080384704908             -3.51E-04

                           Spin 1          
     Orb      H-eigenvalues     Occupancies
       1 |    -0.6373637837    1.0000000000 | 
                          ------
    1276 |     0.0442213274    0.9999890207 | 
    1277 |     0.0442225223    0.9999890166 | 
    1278 |     0.0444209350    0.9999883064 | 
    1279 |     0.0444236440    0.9999882964 | 
    1280 |     0.0445096258    0.9999879743 | 
                 - Gap at zero temperature -
    1281 |     0.1166219419    0.0000107262 | 
    1282 |     0.1166248523    0.0000107163 | 
    1283 |     0.1166347441    0.0000106829 | 
    1284 |     0.1166373373    0.0000106741 | 
    1285 |     0.1166460546    0.0000106448 | 
                          ------
    2560 |     0.8953955552    0.0000000000 | 

                       |  Abs_value |  Threshold | Converged
     Delta_Free_energy |   7.47E-05 |   1.00E-06 |        No
     Delta_Energy      |   7.47E-05 |   1.00E-04 |       Yes
     Delta_Entropy     |   3.79E-08 |   1.00E-04 |       Yes
     Commutator        |   5.05E-06 |   1.00E-05 |       Yes
     Delta_Fermi_level |   3.51E-04 |   1.00E-03 |       Yes

  Line search of the free energy minimum:
  Step_type        Step             Free_energy   Predicted_free_energy
.   Initial    0.000000    -3678.16621843743678
.    Trial1    0.413787    -3678.16624004929145
.    Trial2    0.637700    -3678.16621420282718
. Quadratic    0.306222    -3678.16624309323834    -3678.16624309126701

--------------------------------------------------------------------------------
  Iter                              Commutator    Free_energy(A=E-TS)     DeltaA
#    4                          0.000003161326   -3678.16624309323834  -2.47E-05

Step                       =       0.306221552122
Energy                     =   -3678.166213023446
Entropy (-TS)              =      -0.000030069645
Free energy (A=E-TS)       =   -3678.166243093238
Est. 0K Energy 0.5*(E+A)   =   -3678.166228058342
Residual Non-orthogonality =       0.000000000000
Residual N_electrons       =      -0.000000000147

Spin          Integrated_Ne            Fermi_level     Delta_Fermi_level
   1      2560.000000001829         0.080233868316             -1.51E-04

                           Spin 1          
     Orb      H-eigenvalues     Occupancies
       1 |    -0.6376453869    1.0000000000 | 
[...]
 C   160 -- C   385       -0.09      5.37000
 C   159 -- C   384       -0.09      5.37000
 C   158 -- C   383       -0.09      5.37000
 C   157 -- C   382       -0.09      5.37000
 C   156 -- C   381       -0.09      5.37000
 C   155 -- C   355       -0.09      5.37000
 C   154 -- C   354       -0.09      5.37000
 C   153 -- C   353       -0.09      5.37000
 C   152 -- C   352       -0.09      5.37000
 C   151 -- C   351       -0.09      5.37000
 C   140 -- C   335       -0.09      5.37000
 C   139 -- C   334       -0.09      5.37000
 C   138 -- C   333       -0.09      5.37000
 C   137 -- C   332       -0.09      5.37000
 C   136 -- C   331       -0.09      5.37000
 C   115 -- C   325       -0.09      5.37000
 C   114 -- C   324       -0.09      5.37000
 C   113 -- C   323       -0.09      5.37000
 C   112 -- C   322       -0.09      5.37000
 C   111 -- C   321       -0.09      5.37000
 C   219 -- C   569       -0.09      5.37202
 C   218 -- C   568       -0.09      5.37202
 C   217 -- C   567       -0.09      5.37202
 C   216 -- C   566       -0.09      5.37202
 C   250 -- C   540       -0.09      5.37202
 C   249 -- C   539       -0.09      5.37202
 C   248 -- C   538       -0.09      5.37202
 C   247 -- C   537       -0.09      5.37202
 C   246 -- C   536       -0.09      5.37202
 C   220 -- C   570       -0.09      5.37202
 C   285 -- C   580       -0.09      5.37202
 C   284 -- C   579       -0.09      5.37202
 C   283 -- C   578       -0.09      5.37202
 C   282 -- C   577       -0.09      5.37202
 C   281 -- C   576       -0.09      5.37202
 C   260 -- C   605       -0.09      5.37202
 C   259 -- C   604       -0.09      5.37202
 C   258 -- C   603       -0.09      5.37202
 C   257 -- C   602       -0.09      5.37202
 C   256 -- C   601       -0.09      5.37202
 C   220 -- C   515       -0.09      5.37202
 C   219 -- C   514       -0.09      5.37202
 C   218 -- C   513       -0.09      5.37202
 C   217 -- C   512       -0.09      5.37202
 C   216 -- C   511       -0.09      5.37202
 C   195 -- C   540       -0.09      5.37202
 C   195 -- C   500       -0.09      5.37202
 C   194 -- C   539       -0.09      5.37202
 C   194 -- C   499       -0.09      5.37202
 C   193 -- C   538       -0.09      5.37202
 C   193 -- C   498       -0.09      5.37202
 C   192 -- C   537       -0.09      5.37202
 C   192 -- C   497       -0.09      5.37202
 C   191 -- C   536       -0.09      5.37202
 C   191 -- C   496       -0.09      5.37202
 C   180 -- C   515       -0.09      5.37202
 C   179 -- C   514       -0.09      5.37202
 C   178 -- C   513       -0.09      5.37202
 C   177 -- C   512       -0.09      5.37202
 C   176 -- C   511       -0.09      5.37202
 C    11 -- C   331       -0.09      5.37202
 C   205 -- C   550       -0.09      5.37202
 C   204 -- C   549       -0.09      5.37202
 C   203 -- C   548       -0.09      5.37202
 C   202 -- C   547       -0.09      5.37202
 C   201 -- C   546       -0.09      5.37202
 C    95 -- C   425       -0.09      5.37202
 C    95 -- C   365       -0.09      5.37202
 C    94 -- C   424       -0.09      5.37202
 C    94 -- C   364       -0.09      5.37202
 C    93 -- C   423       -0.09      5.37202
 C    93 -- C   363       -0.09      5.37202
 C    92 -- C   422       -0.09      5.37202
 C    92 -- C   362       -0.09      5.37202
 C    91 -- C   421       -0.09      5.37202
 C    91 -- C   361       -0.09      5.37202
 C    40 -- C   365       -0.09      5.37202
 C    39 -- C   364       -0.09      5.37202
 C    38 -- C   363       -0.09      5.37202
 C    37 -- C   362       -0.09      5.37202
 C    36 -- C   361       -0.09      5.37202
 C    15 -- C   335       -0.09      5.37202
 C    65 -- C   395       -0.09      5.37202
 C    65 -- C   345       -0.09      5.37202
 C    64 -- C   394       -0.09      5.37202
 C    64 -- C   344       -0.09      5.37202
 C    63 -- C   393       -0.09      5.37202
 C    30 -- C   355       -0.09      5.37202
 C    63 -- C   343       -0.09      5.37202
 C    62 -- C   392       -0.09      5.37202
 C    30 -- C   325       -0.09      5.37202
 C    14 -- C   334       -0.09      5.37202
 C    62 -- C   342       -0.09      5.37202
 C    61 -- C   391       -0.09      5.37202
 C    29 -- C   354       -0.09      5.37202
 C    61 -- C   341       -0.09      5.37202
 C    29 -- C   324       -0.09      5.37202
 C   260 -- C   550       -0.09      5.37202
 C   259 -- C   549       -0.09      5.37202
 C    28 -- C   353       -0.09      5.37202
 C   258 -- C   548       -0.09      5.37202
 C   257 -- C   547       -0.09      5.37202
 C   256 -- C   546       -0.09      5.37202
 C    28 -- C   323       -0.09      5.37202
 C    27 -- C   352       -0.09      5.37202
 C    13 -- C   333       -0.09      5.37202
 C    27 -- C   322       -0.09      5.37202
 C   120 -- C   395       -0.09      5.37202
 C    26 -- C   351       -0.09      5.37202
 C   119 -- C   394       -0.09      5.37202
 C   118 -- C   393       -0.09      5.37202
 C    55 -- C   335       -0.09      5.37202
 C   117 -- C   392       -0.09      5.37202
 C    26 -- C   321       -0.09      5.37202
 C   116 -- C   391       -0.09      5.37202
 C    54 -- C   334       -0.09      5.37202
 C    12 -- C   332       -0.09      5.37202
 C    53 -- C   333       -0.09      5.37202
 C   230 -- C   580       -0.09      5.37202
 C   230 -- C   525       -0.09      5.37202
 C   229 -- C   579       -0.09      5.37202
 C   229 -- C   524       -0.09      5.37202
 C   228 -- C   578       -0.09      5.37202
 C    52 -- C   332       -0.09      5.37202
 C   228 -- C   523       -0.09      5.37202
 C   227 -- C   577       -0.09      5.37202
 C   227 -- C   522       -0.09      5.37202
 C   226 -- C   576       -0.09      5.37202
 C   226 -- C   521       -0.09      5.37202
 C    51 -- C   331       -0.09      5.37202
 C    23 -- C   478       -0.09      5.37202
 C    49 -- C   469       -0.09      5.37202
 C    48 -- C   468       -0.09      5.37202
 C    47 -- C   467       -0.09      5.37202
 C    22 -- C   477       -0.09      5.37202
 C    46 -- C   466       -0.09      5.37202
 C    21 -- C   476       -0.09      5.37202
 C    85 -- C   355       -0.09      5.37202
 C    84 -- C   354       -0.09      5.37202
 C    83 -- C   353       -0.09      5.37202
 C    82 -- C   352       -0.09      5.37202
 C    81 -- C   351       -0.09      5.37202
 C    55 -- C   385       -0.09      5.37202
 C    54 -- C   384       -0.09      5.37202
 C    25 -- C   480       -0.09      5.37202
 C    53 -- C   383       -0.09      5.37202
 C    52 -- C   382       -0.09      5.37202
 C    51 -- C   381       -0.09      5.37202
 C    24 -- C   479       -0.09      5.37202
 C    50 -- C   470       -0.09      5.37202
 C    24 -- C   449       -0.09      5.37202
 C     6 -- C   416       -0.09      5.37202
 C    23 -- C   448       -0.09      5.37202
 C    22 -- C   447       -0.09      5.37202
 C    10 -- C   470       -0.09      5.37202
 C     5 -- C   450       -0.09      5.37202
 C    21 -- C   446       -0.09      5.37202
 C    10 -- C   420       -0.09      5.37202
 C     9 -- C   469       -0.09      5.37202
 C     9 -- C   419       -0.09      5.37202
 C     8 -- C   468       -0.09      5.37202
 C     4 -- C   449       -0.09      5.37202
 C   150 -- C   440       -0.09      5.37202
 C   149 -- C   439       -0.09      5.37202
 C   148 -- C   438       -0.09      5.37202
 C   147 -- C   437       -0.09      5.37202
 C     8 -- C   418       -0.09      5.37202
 C   146 -- C   436       -0.09      5.37202
 C     2 -- C   447       -0.09      5.37202
 C   135 -- C   460       -0.09      5.37202
 C     7 -- C   467       -0.09      5.37202
 C   134 -- C   459       -0.09      5.37202
 C   133 -- C   458       -0.09      5.37202
 C   132 -- C   457       -0.09      5.37202
 C   131 -- C   456       -0.09      5.37202
 C     7 -- C   417       -0.09      5.37202
 C     1 -- C   446       -0.09      5.37202
 C     6 -- C   466       -0.09      5.37202
 C    25 -- C   450       -0.09      5.37202
 C     3 -- C   448       -0.09      5.37202
 C   106 -- C   436       -0.09      5.37202
 C   106 -- C   376       -0.09      5.37202
 C    80 -- C   410       -0.09      5.37202
 C    79 -- C   409       -0.09      5.37202
 C    78 -- C   408       -0.09      5.37202
 C    77 -- C   407       -0.09      5.37202
 C    76 -- C   406       -0.09      5.37202
 C   135 -- C   410       -0.09      5.37202
 C   134 -- C   409       -0.09      5.37202
 C   133 -- C   408       -0.09      5.37202
 C   132 -- C   407       -0.09      5.37202
 C   131 -- C   406       -0.09      5.37202
 C   110 -- C   440       -0.09      5.37202
 C   110 -- C   380       -0.09      5.37202
 C   109 -- C   439       -0.09      5.37202
 C   109 -- C   379       -0.09      5.37202
 C   108 -- C   438       -0.09      5.37202
 C   108 -- C   378       -0.09      5.37202
 C   107 -- C   437       -0.09      5.37202
 C   107 -- C   377       -0.09      5.37202
 C   215 -- C   635       -0.09      5.38000
 C   214 -- C   634       -0.09      5.38000
 C   213 -- C   633       -0.09      5.38000
 C   212 -- C   632       -0.09      5.38000
 C   211 -- C   631       -0.09      5.38000
 C   190 -- C   620       -0.09      5.38000
 C   189 -- C   619       -0.09      5.38000
 C   188 -- C   618       -0.09      5.38000
 C   187 -- C   617       -0.09      5.38000
 C   186 -- C   616       -0.09      5.38000
 C   175 -- C   595       -0.09      5.38000
 C   174 -- C   594       -0.09      5.38000
 C   173 -- C   593       -0.09      5.38000
 C   172 -- C   592       -0.09      5.38000
 C   171 -- C   591       -0.09      5.38000
 C   245 -- C   640       -0.09      5.38000
 C   244 -- C   639       -0.09      5.38000
 C   243 -- C   638       -0.09      5.38000
 C   242 -- C   637       -0.09      5.38000
 C   241 -- C   636       -0.09      5.38000
==================================================


=================== Orbital energy and occupancy information ===================

      Total number of orbitals:    2560
        Occupancy sum (kernel):    1280.000000000
   Occupancy sum (eigenvalues):    1280.000000000
                 HOMO-LUMO gap:       0.000001927 Eh
                 Mid-gap level:       0.190577664 Eh

                        Orbital | Energy (Eh) | Occupancy
                            1    -0.559358382   1.0000000
                        .......   ...........   .........
                         1272     0.118642734   0.9999889
                         1273     0.119098615   0.9999872
                         1274     0.119109045   0.9999871
                         1275     0.119663601   0.9999847
                         1276     0.119667125   0.9999847
                         1277     0.120049182   0.9999827
                         1278     0.120131392   0.9999822
                         1279     0.120134918   0.9999822
                         1280     0.120517369   0.9999799
                         1281     0.190576701   0.0000122
                        ....... -- gap at 0K -- .........
                         1282     0.190578628   0.0000122
                         1283     0.190675126   0.0000118
                         1284     0.190675520   0.0000118
                         1285     0.190735684   0.0000116
                         1286     0.190831361   0.0000112
                         1287     0.190833258   0.0000112
                         1288     0.190929306   0.0000109
                         1289     0.190929698   0.0000109
                         1290     0.190989674   0.0000107
                         1291     0.191034257   0.0000105
                        .......   ...........   .........
                         2560     1.036484832   0.0000000

================================================================================

===================== Writing canonical molecular orbitals =====================
| Orbital  Energy (eV)  Norm     |
| HOMO      5.18585590  1.000000 | Writing "4.427248_GO_manual_4x64graphite_HOMO.cube" ... done
Writing "4.427248_GO_manual_4x64graphite_HOMO.dx" ... done
| LUMO      5.18590834  1.000000 | Writing "4.427248_GO_manual_4x64graphite_LUMO.cube" ... done
Writing "4.427248_GO_manual_4x64graphite_LUMO.dx" ... done
================================================================================
 
===================== Density of States (DOS) calculation ======================
Writing "4.427248_GO_manual_4x64graphite_DOS.txt" ...  done
================================================================================
 
Writing bands to file "4.427248_GO_manual_4x64graphite.val_bands" ... done
 
================ Projected Density of States (pDOS) calculation ================
 
Constructing AM resolved functions  ...... done
Writing NGWF plot files in formats: CUBE DX ...  done
 
Performing overlap integrals ...  done
 
Computing pDOS weights ...  done
 
All bands spilling parameter =   2.78 %
Occupancy-weighted spilling parameter =   1.01 %
 
 => Outputting data for OptaDOS <=
 
Writing pDOS weights to file "4.427248_GO_manual_4x64graphite.val_pdos_bin" ... done
 
Writing band gradients to file "4.427248_GO_manual_4x64graphite.val_dome_bin" ... done
 
Writing Castep output cell file to "4.427248_GO_manual_4x64graphite-out.cell" ... done
 
 => Computing Gaussian smeared pDOS <= 
Writing "4.427248_GO_manual_4x64graphite_PDOS.txt" ...  done
 
 => Computing Occupancy-weighted Gaussian smeared pDOS <= 
Writing "4.427248_GO_manual_4x64graphite_occ_PDOS.txt" ...  done
  => Band centres: 
 S band centre of group 1:  -15.623036 eV
 P band centre of group 1:   -8.506523 eV
  Band centres done. <=
  => Integrated number of electrons in each AM band: 
 S num electrons of group 1:  574.263009
 P num electrons of group 1: 1959.786430
  Integrated number of electrons done. <=
================================================================================

------------------------------ TIMING INFORMATION ------------------------------
AVERAGE TIME:    2606.736s on     40 node(s)                                    
TOTAL TIME:      2606.737s on     40 node(s)                                    
================= AVERAGE TIMINGS FROM ALL NODES (CUMULATIVE) ==================
|| TAG                                    #calls    cpu time   %total  Gflops ||
|| work_imbalance                       :     1        0.00s   0.000%  ------ ||
|| paw_tcore_hartree_on_grid            :     1        0.01s   0.000%  ------ ||
|| paw_tcore_density                    :     1        0.01s   0.001%  ------ ||
|| paw_sphere_density_on_grid           :     1        0.01s   0.001%  ------ ||
|| sparse_set_to_garbage                :   135        0.02s   0.001%  ------ ||
|| paw_dij_hartree                      :   268        0.03s   0.001%  ------ ||
|| basis_extract_function_from_box      :  1536        0.07s   0.003%  ------ ||
|| pseudo_make_structure_factor         :     1        0.07s   0.003%  ------ ||
|| paw_species_calc_proj_prec_mat       :     1        0.12s   0.005%  ------ ||
|| paw_dataset_init                     :     1        0.17s   0.006%  ------ ||
|| density_init_guess_real              :     1        0.17s   0.007%  ------ ||
|| restart_kernel_write                 :    13        0.63s   0.024%  ------ ||
|| ngwfs_initialise_from_radial         :     2        0.66s   0.025%  ------ ||
|| sparse_init                          :     1        0.84s   0.032%  ------ ||
|| dense_normal_eigensolve              :     1        1.07s   0.041%  ------ ||
|| hartree_on_grid                      :   202        1.67s   0.064%  ------ ||
|| projectors_init_fftbox_recip         :   121        2.36s   0.090%  ------ ||
|| fourier_apply_box_pair               :  2272        3.77s   0.144% 559.546 ||
|| basis_copy_function_to_box           : 19264        4.15s   0.159%  ------ ||
|| ewald_calculate_energy               :     1        4.31s   0.165%  ------ ||
|| augmentation_screen_dij              :   207        4.45s   0.171%  ------ ||
|| sparse_embed_hotelling_invert_embed  :    23        6.50s   0.249%  ------ ||
|| sw_init                              :     1        6.73s   0.258%  ------ ||
|| ngwf_gradient_coeffs                 :    12        8.23s   0.316%  ------ ||
|| sparse_trace                         :  2422        9.65s   0.370%  ------ ||
|| fourier_apply_cell_backward          :  6233       14.67s   0.563%  67.117 ||
|| cell_grid_extract_box_real           :  8124       15.82s   0.607%  ------ ||
|| fourier_apply_cell_forward           :  5830       16.10s   0.618%  57.179 ||
|| cell_grid_deposit_box_real           : 26032       16.17s   0.620%  ------ ||
|| paw_dij_xc                           :   268       18.29s   0.702%  ------ ||
|| aug_nonlocal_mat                     :   256       25.70s   0.986%  ------ ||
|| density_fftbox_deposit_to_cell       : 12928       32.61s   1.251%  ------ ||
|| augmentation_density_on_grid         :   202       35.57s   1.365%  ------ ||
|| hamiltonian_energy_components        :     3       39.53s   1.516%  ------ ||
|| projectors_func_ovlp_box             :    24       42.10s   1.615%  ------ ||
|| function_ops_brappd_ketppd           :    48       43.85s   1.682%  ------ ||
|| eigenstates_pdos                     :     1       53.01s   2.034%  ------ ||
|| eigenstates_calculate                :     1       57.67s   2.212%  ------ ||
|| integrals_kinetic                    :    23       58.12s   2.230%  ------ ||
|| nlxc_vdw_energy                      :   402       63.94s   2.453%  ------ ||
|| xc_energy_potential                  :   201       68.18s   2.616%  ------ ||
|| dense_eigensolve                     :   175       87.96s   3.374%  ------ ||
|| sparse_product                       :  2475       97.72s   3.749%  ------ ||
|| potential_apply_to_ngwf_batch        :   252       98.06s   3.762%  ------ ||
|| properties_calculate                 :     1      107.11s   4.109%  ------ ||
|| basis_dot_function_with_box          : 4.629M     124.87s   4.790%  ------ ||
|| restart_ngwfs_tightbox_output        :    11      127.25s   4.882%  ------ ||
|| integrals_locpot_mat_els_batch       :   252      160.43s   6.154%  ------ ||
|| projectors_gradient_batch            :    48      163.79s   6.283%  ------ ||
|| fourier_apply_box                    : 60896      188.61s   7.236% 977.931 ||
|| edft_diag_ngwf_ham                   :   174      195.08s   7.484%  ------ ||
|| projectors_grad_precond_batch        :    48      239.83s   9.200%  ------ ||
|| density_fftbox_interpolate_multiply  : 12928      250.53s   9.611%  ------ ||
|| integrals_locpot_dbl_grid            :    63      259.46s   9.953%  ------ ||
|| density_batch_interp_deposit         :   808      313.24s  12.016%  ------ ||
|| basis_add_function_to_box            : 13.06M     337.31s  12.940%  ------ ||
|| edft_apply_smearing_operator         :   174      377.25s  14.472%  ------ ||
|| ngwf_gradient_build_batch            :    48      439.96s  16.878%  ------ ||
|| density_batch_row_sums               :   808      457.85s  17.564%  ------ ||
|| ngwf_gradient_batch                  :    48      577.08s  22.138%  ------ ||
|| ngwf_gradient_lnv                    :    12      593.53s  22.769%  ------ ||
|| density_on_dbl_grid                  :   202      783.06s  30.040%  ------ ||
|| hamiltonian_lhxc_calculate           :   197      868.04s  33.300%  ------ ||
|| edft_calculate                       :    12     1496.01s  57.390%  ------ ||
|| ngwf_cg_optimise                     :     1     2475.02s  94.947%  ------ ||
|| total_time                           :     1     2606.74s 100.000%  ------ ||
================================================================================
Overhead of generating timer report: 
- 0 ms averaging over threads,
- 5 ms ensuring consistency across MPI ranks,
- 0 ms printing in order.

Job completed: 06-03-2020 03:29 (-0000)

