 +---------------------------------------------------------------+
 |                                                               |
 |        ####### #     # ####### ####### ####### ######         |
 |        #     # ##    # #          #    #       #     #        |
 |        #     # # #   # #          #    #       #     #        |
 |        #     # #  #  # #####      #    #####   ######         |
 |        #     # #   # # #          #    #       #              |
 |        #     # #    ## #          #    #       #              |
 |        ####### #     # #######    #    ####### #              |
 |                                                               |
 |        Linear-Scaling Ab Initio Total Energy Program          |
 |                                                               |
 |          Release for academic collaborators of ODG            |
 |                                             Version 5.3.2.12  |
 |                                                               |
 +---------------------------------------------------------------+
 |                                                               |
 |  Authors:                                                     |
 |  Jacek Dziedzic, Peter D. Haynes, Nicholas D. M. Hine,        |
 |  Arash. A. Mostofi, Mike C. Payne and Chris-Kriton Skylaris   |
 |                                                               |
 |  Contributors:                                                |
 |  J. Aarons, L. Andrinopoulos, P. W. Avraam, R. A. Bell,       |
 |  A. Bhandari, G. A. Bramley, R. J. Charlton, S. J. Clark,     |
 |  R. J. Clements, G. C. Constantinescu, F. Corsetti,           |
 |  N. Corsini, O. Dieguez, S. M. M. Dubois, K. K. B. Duff,      |
 |  J. M. Escartin, A. Greco, H. Helal, Q. O. Hill, L. P. Lee,   |
 |  J.-H. Li, E. B. Linscott, G. Moynihan, D. D. O`Regan,        |
 |  O. K. Okan, M. J. S. Phipps, C. J. Pickard,                  |
 |  J. C. A. Prentice, M. I. J. Probert, L. E. Ratcliff,         |
 |  M. Robinson, A. Ruiz Serrano, J. S. Spencer, E. W. Tait,     |
 |  G. Teobaldi, D. Turban, V. Vitale, K. A. Wilkinson,          |
 |  C. Weber, J. C. Womack, N. Yeung and T. J. Zuehlsdorff       |
 |                                                               |
 |                                   Copyright (c) 2004-2020     |
 |                                                               |
 |  Please cite:                                                 |
 |  "Introducing ONETEP: Linear-scaling density functional       |
 |   simulations on parallel computers".                         |
 |   C.-K. Skylaris, P. D. Haynes, A. A. Mostofi, M. C. Payne.   |
 |   J. Chem. Phys. 122 084119 (2005).                           |
 |                                                               |
 |          in all publications arising from your use of ONETEP. |
 |                                                               |
 +---------------------------------------------------------------+
 |                                                               |
 |   ONETEP is based on developments described in the following  |
 |   publications:                                               |
 |                                                               |
 |  "Nonorthogonal generalized Wannier function pseudopotential  |
 |   plane-wave method".                                         |
 |   C.-K. Skylaris, A. A. Mostofi, P. D. Haynes, O. Dieguez,    |
 |   M. C. Payne.                                                |
 |   Phys. Rev. B 66 035119 (2002).                              |
 |                                                               |
 |  "Preconditioned iterative minimization for linear-scaling    |
 |   electronic structure calculations".                         |
 |   A. A. Mostofi, P. D. Haynes, C.-K. Skylaris, M. C. Payne.   |
 |   J. Chem. Phys. 119(17), pp.8842-8848 (2003).                |
 |                                                               |
 |  "Total-energy calculations on a real space grid with         |
 |   localized functions and a plane-wave basis".                |
 |   A. A. Mostofi, C.-K. Skylaris, P. D. Haynes, M. C. Payne.   |
 |   Comput. Phys. Commun. 147, pp.788-802 (2002).               |
 |                                                               |
 |  "Accurate kinetic energy evaluation in electronic structure  |
 |   calculations with localized functions on real space grids"  |
 |   C.-K. Skylaris, A. A. Mostofi, P. D. Haynes, C. J. Pickard, |
 |   M. C. Payne.                                                |
 |   Comput. Phys. Commun. 140, pp.315-322 (2001).               |
 |                                                               |
 |  "Accurate ionic forces and geometry optimization in linear-  |
 |   scaling density-functional theory with local orbitals"      |
 |   N. D. M. Hine, M. Robinson, P. D. Haynes, C.-K. Skylaris,   |
 |   M. C. Payne, and A. A. Mostofi.                             |
 |   Phys. Rev. B 83 195102 (2011).                              |
 |                                                               |
 +---------------------------------------------------------------+

Job started: 06-03-2020 02:45 (-0000)
 
Reading parameters from file "4.69556_GO_manual_4x64graphite.dat" ...

WARNING: "cutoff_energy" not specified, but "psinc_spacing" specified.
         Using the latter to set the KE cutoff energy to  732.32021eV,
         thus *overriding* the default.

... done

If your calculation crashes here, before "Checking processes and threads..."
is displayed, then your stack size is insufficient.
If so, use "ulimit -s unlimited" at runtime.
You can disable this check with "check_stack_size F".

Checking processes and threads...
   Determining the default number of threads...
      No default threads set at compilation time: defaulting to 1.
      OpenMP library call suggests 4 threads.
      Hybrid MPI-OpenMP compilation detected.
      Number of MPI processes > 1.
      OMP_NUM_THREADS environment variable present and
      its value matches the one obtained from the OpenMP library call.
      Using this value as default.
      Default threads: 4
      Default applies to threads_max and threads_num_fftboxes.
      Settings in the input file override this default.
   ... done

   Running with 40 MPI processes.
   There are 10 MPI processes running on the same node as the root process.
   Each MPI process is using: 
               1 threads for simulation cell FFTs.
               1 threads for parallel FFT box operations.
               4 threads for loops over batched FFT box operations.
               4 threads in other parallel regions.
... done

Basic input checks...
Resetting ngwf_cg_rotate to TRUE for EDFT calculations
... done

Reading geometry and species blocks from file "4.69556_GO_manual_4x64graphite.dat" ...
    
  PSINC grid spacing along a1 set to   0.511215680000a0 from input file.
  PSINC grid spacing along a2 set to   0.531284090000a0 from input file.
  PSINC grid spacing along a3 set to   0.507048030000a0 from input file.
  Number of PPD points along a3 set to 1.  This is 
  the default value, it may have been provided also in the input file.
... done
 Writing xyz coordinates to file "4.69556_GO_manual_4x64graphite.xyz" ... done


--------------------------------------------------------------------------------
---------------------------------- INPUT FILE ----------------------------------
--------------------------------------------------------------------------------

task : singlepoint                                                              
do_properties : true                                                            
dx_format T                                                                     
edft T                                                                          
output_detail VERBOSE                                                           
write_xyz T                                                                     
xc_functional VDWDF2                                                            
PSINC_SPACING 0.51121568 0.53128409 0.50704803                                  
paw T                                                                           
pdos_max_l = 2                                                                  
dos_smear  0.1 eV                                                               
popn_calculate T                                                                
PDOS_PSEUDOATOMIC T                                                             
PDOS_REDUCE_SWS F                                                               
PDOS_CONSTRUCT_BASIS F                                                          
PDOS_LOWDIN T                                                                   
PDOS_ORTH_ATOM_BLOCKS F                                                         
PDOS_LCAO_OPTIMIZE F                                                            
pdos_optados_output T                                                           
homo_plot 0                                                                     
lumo_plot 0                                                                     
homo_dens_plot -1                                                               
lumo_dens_plot -1                                                               
%BLOCK SPECIES                                                                  
C C 6 4 9.0                                                                     
%ENDBLOCK SPECIES                                                               
%BLOCK SPECIES_POT                                                              
C "~/pp/paw/c_pbe_abinit.paw"                                                   
%ENDBLOCK SPECIES_POT                                                           
%BLOCK SPECIES_ATOMIC_SET                                                       
C "SOLVE conf=2s2 2p2"                                                          
%ENDBLOCK SPECIES_ATOMIC_SET                                                    
%BLOCK LATTICE_CART                                                             
32.21  0.00  0.00                                                               
0.00 18.59  0.00                                                                
0.00  0.00 88.73                                                                
%ENDBLOCK LATTICE_CART                                                          
%BLOCK POSITIONS_ABS                                                            
C  0.00  0.00  4.44                                                             
C  0.00  0.00 22.18                                                             
C  0.00  0.00 39.93                                                             
C  0.00  0.00 57.68                                                             
C  0.00  0.00 75.42                                                             
C  0.00  4.65  4.44                                                             
C  0.00  4.65 22.18                                                             
C  0.00  4.65 39.93                                                             
C  0.00  4.65 57.68                                                             
C  0.00  4.65 75.42                                                             
C  4.03  2.32  4.44                                                             
C  4.03  2.32 22.18                                                             
C  4.03  2.32 39.93                                                             
C  4.03  2.32 57.68                                                             
C  4.03  2.32 75.42                                                             
C  8.05  0.00  4.44                                                             
C  8.05  0.00 22.18                                                             
C  8.05  0.00 39.93                                                             
C  8.05  0.00 57.68                                                             
C  8.05  0.00 75.42                                                             
C  0.00  9.30  4.44                                                             
C  0.00  9.30 22.18                                                             
C  0.00  9.30 39.93                                                             
C  0.00  9.30 57.68                                                             
C  0.00  9.30 75.42                                                             
C  4.03  6.97  4.44                                                             
C  4.03  6.97 22.18                                                             
C  4.03  6.97 39.93                                                             
C  4.03  6.97 57.68                                                             
C  4.03  6.97 75.42                                                             
C  8.05  4.65  4.44                                                             
C  8.05  4.65 22.18                                                             
C  8.05  4.65 39.93                                                             
C  8.05  4.65 57.68                                                             
C  8.05  4.65 75.42                                                             
C 12.08  2.32  4.44                                                             
C 12.08  2.32 22.18                                                             
C 12.08  2.32 39.93                                                             
C 12.08  2.32 57.68                                                             
C 12.08  2.32 75.42                                                             
C 16.10  0.00  4.44                                                             
C 16.10  0.00 22.18                                                             
C 16.10  0.00 39.93                                                             
C 16.10  0.00 57.68                                                             
C 16.10  0.00 75.42                                                             
C  0.00 13.95  4.44                                                             
C  0.00 13.95 22.18                                                             
C  0.00 13.95 39.93                                                             
C  0.00 13.95 57.68                                                             
C  0.00 13.95 75.42                                                             
C  4.03 11.62  4.44                                                             
C  4.03 11.62 22.18                                                             
C  4.03 11.62 39.93                                                             
C  4.03 11.62 57.68                                                             
C  4.03 11.62 75.42                                                             
C  8.05  9.30  4.44                                                             
C  8.05  9.30 22.18                                                             
C  8.05  9.30 39.93                                                             
C  8.05  9.30 57.68                                                             
C  8.05  9.30 75.42                                                             
C 12.08  6.97  4.44                                                             
C 12.08  6.97 22.18                                                             
C 12.08  6.97 39.93                                                             
C 12.08  6.97 57.68                                                             
C 12.08  6.97 75.42                                                             
C 16.10  4.65  4.44                                                             
C 16.10  4.65 22.18                                                             
C 16.10  4.65 39.93                                                             
C 16.10  4.65 57.68                                                             
C 16.10  4.65 75.42                                                             
C 20.13  2.32  4.44                                                             
C 20.13  2.32 22.18                                                             
C 20.13  2.32 39.93                                                             
C 20.13  2.32 57.68                                                             
C 20.13  2.32 75.42                                                             
C 24.16  0.00  4.44                                                             
C 24.16  0.00 22.18                                                             
C 24.16  0.00 39.93                                                             
C 24.16  0.00 57.68                                                             
C 24.16  0.00 75.42                                                             
C  4.03 16.27  4.44                                                             
C  4.03 16.27 22.18                                                             
C  4.03 16.27 39.93                                                             
C  4.03 16.27 57.68                                                             
C  4.03 16.27 75.42                                                             
C  8.05 13.95  4.44                                                             
C  8.05 13.95 22.18                                                             
C  8.05 13.95 39.93                                                             
C  8.05 13.95 57.68                                                             
C  8.05 13.95 75.42                                                             
C 12.08 11.62  4.44                                                             
C 12.08 11.62 22.18                                                             
C 12.08 11.62 39.93                                                             
C 12.08 11.62 57.68                                                             
C 12.08 11.62 75.42                                                             
C 16.10  9.30  4.44                                                             
C 16.10  9.30 22.18                                                             
C 16.10  9.30 39.93                                                             
C 16.10  9.30 57.68                                                             
C 16.10  9.30 75.42                                                             
C 20.13  6.97  4.44                                                             
C 20.13  6.97 22.18                                                             
C 20.13  6.97 39.93                                                             
C 20.13  6.97 57.68                                                             
C 20.13  6.97 75.42                                                             
C 24.16  4.65  4.44                                                             
C 24.16  4.65 22.18                                                             
C 24.16  4.65 39.93                                                             
C 24.16  4.65 57.68                                                             
C 24.16  4.65 75.42                                                             
C 28.18  2.32  4.44                                                             
C 28.18  2.32 22.18                                                             
C 28.18  2.32 39.93                                                             
C 28.18  2.32 57.68                                                             
C 28.18  2.32 75.42                                                             
C 12.08 16.27  4.44                                                             
C 12.08 16.27 22.18                                                             
C 12.08 16.27 39.93                                                             
C 12.08 16.27 57.68                                                             
C 12.08 16.27 75.42                                                             
C 16.10 13.95  4.44                                                             
C 16.10 13.95 22.18                                                             
C 16.10 13.95 39.93                                                             
C 16.10 13.95 57.68                                                             
C 16.10 13.95 75.42                                                             
C 20.13 11.62  4.44                                                             
C 20.13 11.62 22.18                                                             
C 20.13 11.62 39.93                                                             
C 20.13 11.62 57.68                                                             
C 20.13 11.62 75.42                                                             
C 24.16  9.30  4.44                                                             
C 24.16  9.30 22.18                                                             
C 24.16  9.30 39.93                                                             
C 24.16  9.30 57.68                                                             
C 24.16  9.30 75.42                                                             
C 28.18  6.97  4.44                                                             
C 28.18  6.97 22.18                                                             
C 28.18  6.97 39.93                                                             
C 28.18  6.97 57.68                                                             
C 28.18  6.97 75.42                                                             
C 20.13 16.27  4.44                                                             
C 20.13 16.27 22.18                                                             
C 20.13 16.27 39.93                                                             
C 20.13 16.27 57.68                                                             
C 20.13 16.27 75.42                                                             
C 24.16 13.95  4.44                                                             
C 24.16 13.95 22.18                                                             
C 24.16 13.95 39.93                                                             
C 24.16 13.95 57.68                                                             
C 24.16 13.95 75.42                                                             
C 28.18 11.62  4.44                                                             
C 28.18 11.62 22.18                                                             
C 28.18 11.62 39.93                                                             
C 28.18 11.62 57.68                                                             
C 28.18 11.62 75.42                                                             
C 28.18 16.27  4.44                                                             
C 28.18 16.27 22.18                                                             
C 28.18 16.27 39.93                                                             
C 28.18 16.27 57.68                                                             
C 28.18 16.27 75.42                                                             
C  0.00  0.00 13.31                                                             
C  0.00  0.00 31.06                                                             
C  0.00  0.00 48.80                                                             
C  0.00  0.00 66.55                                                             
C  0.00  0.00 84.30                                                             
C  0.00  4.65 13.31                                                             
C  0.00  4.65 31.06                                                             
C  0.00  4.65 48.80                                                             
C  0.00  4.65 66.55                                                             
C  0.00  4.65 84.30                                                             
C  4.03  2.32 13.31                                                             
C  4.03  2.32 31.06                                                             
C  4.03  2.32 48.80                                                             
C  4.03  2.32 66.55                                                             
C  4.03  2.32 84.30                                                             
C  8.05  0.00 13.31                                                             
C  8.05  0.00 31.06                                                             
C  8.05  0.00 48.80                                                             
C  8.05  0.00 66.55                                                             
C  8.05  0.00 84.30                                                             
C  0.00  9.30 13.31                                                             
C  0.00  9.30 31.06                                                             
C  0.00  9.30 48.80                                                             
C  0.00  9.30 66.55                                                             
C  0.00  9.30 84.30                                                             
C  4.03  6.97 13.31                                                             
C  4.03  6.97 31.06                                                             
C  4.03  6.97 48.80                                                             
C  4.03  6.97 66.55                                                             
C  4.03  6.97 84.30                                                             
C  8.05  4.65 13.31                                                             
C  8.05  4.65 31.06                                                             
C  8.05  4.65 48.80                                                             
C  8.05  4.65 66.55                                                             
C  8.05  4.65 84.30                                                             
C 12.08  2.32 13.31                                                             
C 12.08  2.32 31.06                                                             
C 12.08  2.32 48.80                                                             
C 12.08  2.32 66.55                                                             
C 12.08  2.32 84.30                                                             
C 16.10  0.00 13.31                                                             
C 16.10  0.00 31.06                                                             
C 16.10  0.00 48.80                                                             
C 16.10  0.00 66.55                                                             
C 16.10  0.00 84.30                                                             
C  0.00 13.95 13.31                                                             
C  0.00 13.95 31.06                                                             
C  0.00 13.95 48.80                                                             
C  0.00 13.95 66.55                                                             
C  0.00 13.95 84.30                                                             
C  4.03 11.62 13.31                                                             
C  4.03 11.62 31.06                                                             
C  4.03 11.62 48.80                                                             
C  4.03 11.62 66.55                                                             
C  4.03 11.62 84.30                                                             
C  8.05  9.30 13.31                                                             
C  8.05  9.30 31.06                                                             
C  8.05  9.30 48.80                                                             
C  8.05  9.30 66.55                                                             
C  8.05  9.30 84.30                                                             
C 12.08  6.97 13.31                                                             
C 12.08  6.97 31.06                                                             
C 12.08  6.97 48.80                                                             
C 12.08  6.97 66.55                                                             
C 12.08  6.97 84.30                                                             
C 16.10  4.65 13.31                                                             
C 16.10  4.65 31.06                                                             
C 16.10  4.65 48.80                                                             
C 16.10  4.65 66.55                                                             
C 16.10  4.65 84.30                                                             
C 20.13  2.32 13.31                                                             
C 20.13  2.32 31.06                                                             
C 20.13  2.32 48.80                                                             
C 20.13  2.32 66.55                                                             
C 20.13  2.32 84.30                                                             
C 24.16  0.00 13.31                                                             
C 24.16  0.00 31.06                                                             
C 24.16  0.00 48.80                                                             
C 24.16  0.00 66.55                                                             
C 24.16  0.00 84.30                                                             
C  4.03 16.27 13.31                                                             
C  4.03 16.27 31.06                                                             
C  4.03 16.27 48.80                                                             
C  4.03 16.27 66.55                                                             
C  4.03 16.27 84.30                                                             
C  8.05 13.95 13.31                                                             
C  8.05 13.95 31.06                                                             
C  8.05 13.95 48.80                                                             
C  8.05 13.95 66.55                                                             
C  8.05 13.95 84.30                                                             
C 12.08 11.62 13.31                                                             
C 12.08 11.62 31.06                                                             
C 12.08 11.62 48.80                                                             
C 12.08 11.62 66.55                                                             
C 12.08 11.62 84.30                                                             
C 16.10  9.30 13.31                                                             
C 16.10  9.30 31.06                                                             
C 16.10  9.30 48.80                                                             
C 16.10  9.30 66.55                                                             
C 16.10  9.30 84.30                                                             
C 20.13  6.97 13.31                                                             
C 20.13  6.97 31.06                                                             
C 20.13  6.97 48.80                                                             
C 20.13  6.97 66.55                                                             
C 20.13  6.97 84.30                                                             
C 24.16  4.65 13.31                                                             
C 24.16  4.65 31.06                                                             
C 24.16  4.65 48.80                                                             
C 24.16  4.65 66.55                                                             
C 24.16  4.65 84.30                                                             
C 28.18  2.32 13.31                                                             
C 28.18  2.32 31.06                                                             
C 28.18  2.32 48.80                                                             
C 28.18  2.32 66.55                                                             
C 28.18  2.32 84.30                                                             
C 12.08 16.27 13.31                                                             
C 12.08 16.27 31.06                                                             
C 12.08 16.27 48.80                                                             
C 12.08 16.27 66.55                                                             
C 12.08 16.27 84.30                                                             
C 16.10 13.95 13.31                                                             
C 16.10 13.95 31.06                                                             
C 16.10 13.95 48.80                                                             
C 16.10 13.95 66.55                                                             
C 16.10 13.95 84.30                                                             
C 20.13 11.62 13.31                                                             
C 20.13 11.62 31.06                                                             
C 20.13 11.62 48.80                                                             
C 20.13 11.62 66.55                                                             
C 20.13 11.62 84.30                                                             
C 24.16  9.30 13.31                                                             
C 24.16  9.30 31.06                                                             
C 24.16  9.30 48.80                                                             
C 24.16  9.30 66.55                                                             
C 24.16  9.30 84.30                                                             
C 28.18  6.97 13.31                                                             
C 28.18  6.97 31.06                                                             
C 28.18  6.97 48.80                                                             
C 28.18  6.97 66.55                                                             
C 28.18  6.97 84.30                                                             
C 20.13 16.27 13.31                                                             
C 20.13 16.27 31.06                                                             
C 20.13 16.27 48.80                                                             
C 20.13 16.27 66.55                                                             
C 20.13 16.27 84.30                                                             
C 24.16 13.95 13.31                                                             
C 24.16 13.95 31.06                                                             
C 24.16 13.95 48.80                                                             
C 24.16 13.95 66.55                                                             
C 24.16 13.95 84.30                                                             
C 28.18 11.62 13.31                                                             
C 28.18 11.62 31.06                                                             
C 28.18 11.62 48.80                                                             
C 28.18 11.62 66.55                                                             
C 28.18 11.62 84.30                                                             
C 28.18 16.27 13.31                                                             
C 28.18 16.27 31.06                                                             
C 28.18 16.27 48.80                                                             
C 28.18 16.27 66.55                                                             
C 28.18 16.27 84.30                                                             
C  1.34  2.32  4.44                                                             
C  1.34  2.32 22.18                                                             
C  1.34  2.32 39.93                                                             
C  1.34  2.32 57.68                                                             
C  1.34  2.32 75.42                                                             
C  5.37  0.00  4.44                                                             
C  5.37  0.00 22.18                                                             
C  5.37  0.00 39.93                                                             
C  5.37  0.00 57.68                                                             
C  5.37  0.00 75.42                                                             
C  1.34  6.97  4.44                                                             
C  1.34  6.97 22.18                                                             
C  1.34  6.97 39.93                                                             
C  1.34  6.97 57.68                                                             
C  1.34  6.97 75.42                                                             
C  5.37  4.65  4.44                                                             
C  5.37  4.65 22.18                                                             
C  5.37  4.65 39.93                                                             
C  5.37  4.65 57.68                                                             
C  5.37  4.65 75.42                                                             
C  9.39  2.32  4.44                                                             
C  9.39  2.32 22.18                                                             
C  9.39  2.32 39.93                                                             
C  9.39  2.32 57.68                                                             
C  9.39  2.32 75.42                                                             
C 13.42  0.00  4.44                                                             
C 13.42  0.00 22.18                                                             
C 13.42  0.00 39.93                                                             
C 13.42  0.00 57.68                                                             
C 13.42  0.00 75.42                                                             
C  1.34 11.62  4.44                                                             
C  1.34 11.62 22.18                                                             
C  1.34 11.62 39.93                                                             
C  1.34 11.62 57.68                                                             
C  1.34 11.62 75.42                                                             
C  5.37  9.30  4.44                                                             
C  5.37  9.30 22.18                                                             
C  5.37  9.30 39.93                                                             
C  5.37  9.30 57.68                                                             
C  5.37  9.30 75.42                                                             
C  9.39  6.97  4.44                                                             
C  9.39  6.97 22.18                                                             
C  9.39  6.97 39.93                                                             
C  9.39  6.97 57.68                                                             
C  9.39  6.97 75.42                                                             
C 13.42  4.65  4.44                                                             
C 13.42  4.65 22.18                                                             
C 13.42  4.65 39.93                                                             
C 13.42  4.65 57.68                                                             
C 13.42  4.65 75.42                                                             
C 17.45  2.32  4.44                                                             
C 17.45  2.32 22.18                                                             
C 17.45  2.32 39.93                                                             
C 17.45  2.32 57.68                                                             
C 17.45  2.32 75.42                                                             
C 21.47  0.00  4.44                                                             
C 21.47  0.00 22.18                                                             
C 21.47  0.00 39.93                                                             
C 21.47  0.00 57.68                                                             
C 21.47  0.00 75.42                                                             
C  1.34 16.27  4.44                                                             
C  1.34 16.27 22.18                                                             
C  1.34 16.27 39.93                                                             
C  1.34 16.27 57.68                                                             
C  1.34 16.27 75.42                                                             
C  5.37 13.95  4.44                                                             
C  5.37 13.95 22.18                                                             
C  5.37 13.95 39.93                                                             
C  5.37 13.95 57.68                                                             
C  5.37 13.95 75.42                                                             
C  9.39 11.62  4.44                                                             
C  9.39 11.62 22.18                                                             
C  9.39 11.62 39.93                                                             
C  9.39 11.62 57.68                                                             
C  9.39 11.62 75.42                                                             
C 13.42  9.30  4.44                                                             
C 13.42  9.30 22.18                                                             
C 13.42  9.30 39.93                                                             
C 13.42  9.30 57.68                                                             
C 13.42  9.30 75.42                                                             
C 17.45  6.97  4.44                                                             
C 17.45  6.97 22.18                                                             
C 17.45  6.97 39.93                                                             
C 17.45  6.97 57.68                                                             
C 17.45  6.97 75.42                                                             
C 21.47  4.65  4.44                                                             
C 21.47  4.65 22.18                                                             
C 21.47  4.65 39.93                                                             
C 21.47  4.65 57.68                                                             
C 21.47  4.65 75.42                                                             
C 25.50  2.32  4.44                                                             
C 25.50  2.32 22.18                                                             
C 25.50  2.32 39.93                                                             
C 25.50  2.32 57.68                                                             
C 25.50  2.32 75.42                                                             
C 29.52  0.00  4.44                                                             
C 29.52  0.00 22.18                                                             
C 29.52  0.00 39.93                                                             
C 29.52  0.00 57.68                                                             
C 29.52  0.00 75.42                                                             
C  9.39 16.27  4.44                                                             
C  9.39 16.27 22.18                                                             
C  9.39 16.27 39.93                                                             
C  9.39 16.27 57.68                                                             
C  9.39 16.27 75.42                                                             
C 13.42 13.95  4.44                                                             
C 13.42 13.95 22.18                                                             
C 13.42 13.95 39.93                                                             
C 13.42 13.95 57.68                                                             
C 13.42 13.95 75.42                                                             
C 17.45 11.62  4.44                                                             
C 17.45 11.62 22.18                                                             
C 17.45 11.62 39.93                                                             
C 17.45 11.62 57.68                                                             
C 17.45 11.62 75.42                                                             
C 21.47  9.30  4.44                                                             
C 21.47  9.30 22.18                                                             
C 21.47  9.30 39.93                                                             
C 21.47  9.30 57.68                                                             
C 21.47  9.30 75.42                                                             
C 25.50  6.97  4.44                                                             
C 25.50  6.97 22.18                                                             
C 25.50  6.97 39.93                                                             
C 25.50  6.97 57.68                                                             
C 25.50  6.97 75.42                                                             
C 29.52  4.65  4.44                                                             
C 29.52  4.65 22.18                                                             
C 29.52  4.65 39.93                                                             
C 29.52  4.65 57.68                                                             
C 29.52  4.65 75.42                                                             
C 17.45 16.27  4.44                                                             
C 17.45 16.27 22.18                                                             
C 17.45 16.27 39.93                                                             
C 17.45 16.27 57.68                                                             
C 17.45 16.27 75.42                                                             
C 21.47 13.95  4.44                                                             
C 21.47 13.95 22.18                                                             
C 21.47 13.95 39.93                                                             
C 21.47 13.95 57.68                                                             
C 21.47 13.95 75.42                                                             
C 25.50 11.62  4.44                                                             
C 25.50 11.62 22.18                                                             
C 25.50 11.62 39.93                                                             
C 25.50 11.62 57.68                                                             
C 25.50 11.62 75.42                                                             
C 29.52  9.30  4.44                                                             
C 29.52  9.30 22.18                                                             
C 29.52  9.30 39.93                                                             
C 29.52  9.30 57.68                                                             
C 29.52  9.30 75.42                                                             
C 25.50 16.27  4.44                                                             
C 25.50 16.27 22.18                                                             
C 25.50 16.27 39.93                                                             
C 25.50 16.27 57.68                                                             
C 25.50 16.27 75.42                                                             
C 29.52 13.95  4.44                                                             
C 29.52 13.95 22.18                                                             
C 29.52 13.95 39.93                                                             
C 29.52 13.95 57.68                                                             
C 29.52 13.95 75.42                                                             
C  2.68  0.00 13.31                                                             
C  2.68  0.00 31.06                                                             
C  2.68  0.00 48.80                                                             
C  2.68  0.00 66.55                                                             
C  2.68  0.00 84.30                                                             
C  2.68  4.65 13.31                                                             
C  2.68  4.65 31.06                                                             
C  2.68  4.65 48.80                                                             
C  2.68  4.65 66.55                                                             
C  2.68  4.65 84.30                                                             
C  6.71  2.32 13.31                                                             
C  6.71  2.32 31.06                                                             
C  6.71  2.32 48.80                                                             
C  6.71  2.32 66.55                                                             
C  6.71  2.32 84.30                                                             
C 10.74  0.00 13.31                                                             
C 10.74  0.00 31.06                                                             
C 10.74  0.00 48.80                                                             
C 10.74  0.00 66.55                                                             
C 10.74  0.00 84.30                                                             
C  2.68  9.30 13.31                                                             
C  2.68  9.30 31.06                                                             
C  2.68  9.30 48.80                                                             
C  2.68  9.30 66.55                                                             
C  2.68  9.30 84.30                                                             
C  6.71  6.97 13.31                                                             
C  6.71  6.97 31.06                                                             
C  6.71  6.97 48.80                                                             
C  6.71  6.97 66.55                                                             
C  6.71  6.97 84.30                                                             
C 10.74  4.65 13.31                                                             
C 10.74  4.65 31.06                                                             
C 10.74  4.65 48.80                                                             
C 10.74  4.65 66.55                                                             
C 10.74  4.65 84.30                                                             
C 14.76  2.32 13.31                                                             
C 14.76  2.32 31.06                                                             
C 14.76  2.32 48.80                                                             
C 14.76  2.32 66.55                                                             
C 14.76  2.32 84.30                                                             
C 18.79  0.00 13.31                                                             
C 18.79  0.00 31.06                                                             
C 18.79  0.00 48.80                                                             
C 18.79  0.00 66.55                                                             
C 18.79  0.00 84.30                                                             
C  2.68 13.95 13.31                                                             
C  2.68 13.95 31.06                                                             
C  2.68 13.95 48.80                                                             
C  2.68 13.95 66.55                                                             
C  2.68 13.95 84.30                                                             
C  6.71 11.62 13.31                                                             
C  6.71 11.62 31.06                                                             
C  6.71 11.62 48.80                                                             
C  6.71 11.62 66.55                                                             
C  6.71 11.62 84.30                                                             
C 10.74  9.30 13.31                                                             
C 10.74  9.30 31.06                                                             
C 10.74  9.30 48.80                                                             
C 10.74  9.30 66.55                                                             
C 10.74  9.30 84.30                                                             
C 14.76  6.97 13.31                                                             
C 14.76  6.97 31.06                                                             
C 14.76  6.97 48.80                                                             
C 14.76  6.97 66.55                                                             
C 14.76  6.97 84.30                                                             
C 18.79  4.65 13.31                                                             
C 18.79  4.65 31.06                                                             
C 18.79  4.65 48.80                                                             
C 18.79  4.65 66.55                                                             
C 18.79  4.65 84.30                                                             
C 22.81  2.32 13.31                                                             
C 22.81  2.32 31.06                                                             
C 22.81  2.32 48.80                                                             
C 22.81  2.32 66.55                                                             
C 22.81  2.32 84.30                                                             
C 26.84  0.00 13.31                                                             
C 26.84  0.00 31.06                                                             
C 26.84  0.00 48.80                                                             
C 26.84  0.00 66.55                                                             
C 26.84  0.00 84.30                                                             
C  6.71 16.27 13.31                                                             
C  6.71 16.27 31.06                                                             
C  6.71 16.27 48.80                                                             
C  6.71 16.27 66.55                                                             
C  6.71 16.27 84.30                                                             
C 10.74 13.95 13.31                                                             
C 10.74 13.95 31.06                                                             
C 10.74 13.95 48.80                                                             
C 10.74 13.95 66.55                                                             
C 10.74 13.95 84.30                                                             
C 14.76 11.62 13.31                                                             
C 14.76 11.62 31.06                                                             
C 14.76 11.62 48.80                                                             
C 14.76 11.62 66.55                                                             
C 14.76 11.62 84.30                                                             
C 18.79  9.30 13.31                                                             
C 18.79  9.30 31.06                                                             
C 18.79  9.30 48.80                                                             
C 18.79  9.30 66.55                                                             
C 18.79  9.30 84.30                                                             
C 22.81  6.97 13.31                                                             
C 22.81  6.97 31.06                                                             
C 22.81  6.97 48.80                                                             
C 22.81  6.97 66.55                                                             
C 22.81  6.97 84.30                                                             
C 26.84  4.65 13.31                                                             
C 26.84  4.65 31.06                                                             
C 26.84  4.65 48.80                                                             
C 26.84  4.65 66.55                                                             
C 26.84  4.65 84.30                                                             
C 30.86  2.32 13.31                                                             
C 30.86  2.32 31.06                                                             
C 30.86  2.32 48.80                                                             
C 30.86  2.32 66.55                                                             
C 30.86  2.32 84.30                                                             
C 14.76 16.27 13.31                                                             
C 14.76 16.27 31.06                                                             
C 14.76 16.27 48.80                                                             
C 14.76 16.27 66.55                                                             
C 14.76 16.27 84.30                                                             
C 18.79 13.95 13.31                                                             
C 18.79 13.95 31.06                                                             
C 18.79 13.95 48.80                                                             
C 18.79 13.95 66.55                                                             
C 18.79 13.95 84.30                                                             
C 22.81 11.62 13.31                                                             
C 22.81 11.62 31.06                                                             
C 22.81 11.62 48.80                                                             
C 22.81 11.62 66.55                                                             
C 22.81 11.62 84.30                                                             
C 26.84  9.30 13.31                                                             
C 26.84  9.30 31.06                                                             
C 26.84  9.30 48.80                                                             
C 26.84  9.30 66.55                                                             
C 26.84  9.30 84.30                                                             
C 30.86  6.97 13.31                                                             
C 30.86  6.97 31.06                                                             
C 30.86  6.97 48.80                                                             
C 30.86  6.97 66.55                                                             
C 30.86  6.97 84.30                                                             
C 22.81 16.27 13.31                                                             
C 22.81 16.27 31.06                                                             
C 22.81 16.27 48.80                                                             
C 22.81 16.27 66.55                                                             
C 22.81 16.27 84.30                                                             
C 26.84 13.95 13.31                                                             
C 26.84 13.95 31.06                                                             
C 26.84 13.95 48.80                                                             
C 26.84 13.95 66.55                                                             
C 26.84 13.95 84.30                                                             
C 30.86 11.62 13.31                                                             
C 30.86 11.62 31.06                                                             
C 30.86 11.62 48.80                                                             
C 30.86 11.62 66.55                                                             
C 30.86 11.62 84.30                                                             
C 30.86 16.27 13.31                                                             
C 30.86 16.27 31.06                                                             
C 30.86 16.27 48.80                                                             
C 30.86 16.27 66.55                                                             
C 30.86 16.27 84.30                                                             
%ENDBLOCK POSITIONS_ABS                                                         

--------------------------------------------------------------------------------
-------------------------------- END INPUT FILE --------------------------------
--------------------------------------------------------------------------------


 
<<<<<<<<<<<<<<<<<<<<<<<<<<<<<<<<< Full system >>>>>>>>>>>>>>>>>>>>>>>>>>>>>>>>>>
<<<<<<<<<<<<<<<<<<<<<<<<<<< PAW Dataset information >>>>>>>>>>>>>>>>>>>>>>>>>>>
File: ~/pp/paw/c_pbe_abinit.paw; rc = 1.25 bohr; shape type =  3; rshape = 1.25 bohr;
  Atomic number:  6;  ionic charge:  4.000000
    Partial Wave 1: l = 0
    Partial Wave 2: l = 0
    Partial Wave 3: l = 1
    Partial Wave 4: l = 1
  Core charge supplied for Nonlinear Core Corrections
<<<<<<<<<<<<<<<<<<<<<<<<<<<<<<<<<<<<<<< >>>>>>>>>>>>>>>>>>>>>>>>>>>>>>>>>>>>>>>

-------------------------- Atom counting information ---------------------------
Symbol    Natoms    Nngwfs    Nprojs
  C        640      2560      5120
.......   ......    ......    ......
Totals:    640      2560      5120
--------------------------------------------------------------------------------

=============================== PSINC grid sizes ===============================
                      Simulation cell:   63 x  35 x 175
                              FFT-box:   63 x  35 x 117
                                  PPD:    7 x   5 x   1
Grid space d1=  0.511269841270a0 (KE cutoff=  29.06054Eh = 790.77748eV)
Grid space d2=  0.531142857143a0 (KE cutoff=  26.92659Eh = 732.70972eV)
Grid space d3=  0.507028571429a0 (KE cutoff=  29.54875Eh = 804.06244eV)
================================================================================
  
WARNING in cell_grid_distribute:
Average of less than one 23-slab per node, so workload cannot be
equally balanced between nodes.

********************* Fourier parallelisation information **********************
       Coarse grid (whole simulation cell) dimensions:     63    35   175
          Real-space ('12') slabs/node (min max mean):      4     5     4
         Recip-space ('23') slabs/node (min max mean):      0     1     0
********************************************************************************

********************* Fourier parallelisation information **********************
       Double grid (whole simulation cell) dimensions:    126    70   350
          Real-space ('12') slabs/node (min max mean):      8     9     8
         Recip-space ('23') slabs/node (min max mean):      1     2     1
********************************************************************************

Atom SCF Calculation for C  : Z (AE atom) =   6 : Z (PS atom) =   4
Config String: 2s2 2p2
Orbitals (num,occ):  2     2.00 2.00
Orbitals   (num,l):  2        0    1
Real-space Grid (nr,dr,rmax): 1293    0.0069659443    9.0000000000
Spherical Bessel Basis (nsws,lmax,cutoff):   37    2  161.4736382572
Confining potential (l,width,scale):  0    3.0000000000  100.0000000000
Confining potential (l,width,scale):  1    3.0000000000  100.0000000000
  1         -5.4691149987   -1.3647045835    4.5135257941   -1.6713568800
  2         -5.5214542834   -1.4154291535    4.4635199061   -1.6585170582
  3         -5.5221055910   -1.4439161209    4.4342087028   -1.6520281659
  4         -5.5287901521   -1.4522301802    4.4259176063   -1.6507873939
  5         -5.5308251003   -1.4557840400    4.4224142384   -1.6502632738
  6         -5.5317252094   -1.4571386008    4.4211068249   -1.6500892907
  7         -5.5320765973   -1.4576738924    4.4205997642   -1.6500256779
  8         -5.5322192721   -1.4578833190    4.4204056023   -1.6500032912
  9         -5.5322765240   -1.4579657561    4.4203308649   -1.6499954152
 10         -5.5322995843   -1.4579982639    4.4203020904   -1.6499927055
 11         -5.5323088576   -1.4580111317    4.4202909828   -1.6499917962
 12         -5.5323125859   -1.4580162439    4.4202866844   -1.6499915030
 13         -5.5323140836   -1.4580182832    4.4202850159   -1.6499914143
 14         -5.5323146847   -1.4580191002    4.4202843659   -1.6499913905
 15         -5.5323149258   -1.4580194290    4.4202841117   -1.6499913858
 16         -5.5323150224   -1.4580195619    4.4202840119   -1.6499913859
Atom SCF converged after  16 iterations to a total energy of     -5.53231502

Determining parallel strategy ...
... using space-filling curve
... NGWF load balancing: max     64;  min     64;  average     64
... Projector load balancing: max    128;  min    128;  average    128
... done
Calculating Ewald energy ...
              Ewald: real-space energy =    9654.819042
        Ewald: reciprocal-space energy =       4.452557
         Ewald: (sum_charge)**2 Energy =   10114.468781
         Ewald: (sum_charge**2) Energy =     799.618967
                          Ewald Energy =   -1254.816148
Basis initialisation ...... NGWF spheres initialised
... Projector spheres initialised
... NGWF tight boxes initialised
... Projector tight boxes initialised
... Tight-boxes gathered
... NGWF basis size (local,global):     692500  27889536
... PAW projector initialisation
... done

============================= Charge Augmentation ==============================
                           Aug box size:   11 x  11 x  11
================================================================================

========================== Sparse matrix information ===========================
                        Overlap matrix filling:  29.06%
                        Density kernel filling: 100.00%
              NGWF-Proj overlap matrix filling:   7.97%
                    Aug Overlap matrix filling:  35.62%
                    Hamiltonian matrix filling:  35.62%
                  NGWF diagonal matrix filling:   0.16%
                             KS matrix filling: 100.00% 
                           KSKS matrix filling: 100.00% 
================================================================================

Sparse matrix initialisation ... done
NGWF initialisation ...... done
============ Calculation of NGWF S^-1 using Hotelling algorithm ================ 
         Iteration  |  Frobenius norm and Maximum abs value    (of I-S*S_n^-1)   
               1       0.48746654E+02     0.97168227E+00
               2       0.47324816E+02     0.94539314E+00
               3       0.45274608E+02     0.89808781E+00
               4       0.42708839E+02     0.82015061E+00
               5       0.39683032E+02     0.71593292E+00
               6       0.36263122E+02     0.66353162E+00
               7       0.32819434E+02     0.61854747E+00
               8       0.29471594E+02     0.57893887E+00
               9       0.25653062E+02     0.52898184E+00
              10       0.20697610E+02     0.44774702E+00
              11       0.14394842E+02     0.32433263E+00
              12       0.76708051E+01     0.17568910E+00
              13       0.25402226E+01     0.55999259E-01
              14       0.33211355E+00     0.66586987E-02
              15       0.66888690E-02     0.11595480E-03
              16       0.35687981E-05     0.45278741E-07
              17       0.15649790E-11     0.14210855E-13
================================================================================
Calculating core density ...
================================= Core Density =================================
               Core den box size:   21 x  21 x  21
================================================================================
 ... done
Up spin density kernel initialisation ...... done

Writing density kernel to file "4.69556_GO_manual_4x64graphite.dkn" ... done

>>> Optimising kernel for current NGWFs:

--------------------------- Ensemble-DFT optimisation --------------------------
Running ScaLAPACK on   40 processor(s).

--------------------------------------------------------------------------------
  Iter                              Commutator    Free_energy(A=E-TS)     DeltaA
#    0                          0.000051855722   -3677.80075181788834  -3.68E+03

Step                       =       0.381966011250
Energy                     =   -3677.800721335596
Entropy (-TS)              =      -0.000030482281
Free energy (A=E-TS)       =   -3677.800751817888
Est. 0K Energy 0.5*(E+A)   =   -3677.800736576742
Residual Non-orthogonality =       0.000000000000
Residual N_electrons       =      -0.000000000012

Spin          Integrated_Ne            Fermi_level     Delta_Fermi_level
   1      2560.000000000177         0.064996458970              6.50E-02

                           Spin 1          
     Orb      H-eigenvalues     Occupancies
       1 |    -0.6475694231    1.0000000000 | 
                          ------
    1276 |     0.0288949674    0.9999888041 | 
    1277 |     0.0288960533    0.9999888002 | 
    1278 |     0.0290209884    0.9999883496 | 
    1279 |     0.0290221604    0.9999883453 | 
    1280 |     0.0290801458    0.9999881299 | 
                 - Gap at zero temperature -
    1281 |     0.1012363360    0.0000107172 | 
    1282 |     0.1012371996    0.0000107143 | 
    1283 |     0.1012437106    0.0000106923 | 
    1284 |     0.1012452192    0.0000106872 | 
    1285 |     0.1012492486    0.0000106736 | 
                          ------
    2560 |     0.8845268246    0.0000000000 | 

                       |  Abs_value |  Threshold | Converged
     Delta_Free_energy |   3.68E+03 |   1.00E-06 |        No
     Delta_Energy      |   3.68E+03 |   1.00E-04 |        No
     Delta_Entropy     |   3.05E-05 |   1.00E-04 |       Yes
     Commutator        |   5.19E-05 |   1.00E-05 |        No
     Delta_Fermi_level |   6.50E-02 |   1.00E-03 |        No

  Line search of the free energy minimum:
  Step_type        Step             Free_energy   Predicted_free_energy
.   Initial    0.000000    -3677.80075181788834
.    Trial1    0.381966    -3677.80376336215659
.    Trial2    0.618034    -3677.80471245570470
. Quadratic    0.821535    -3677.80497564961343    -3677.80497136467511

--------------------------------------------------------------------------------
  Iter                              Commutator    Free_energy(A=E-TS)     DeltaA
#    1                          0.000021633638   -3677.80497564961343  -4.22E-03

Step                       =       0.821535089903
Energy                     =   -3677.804945151025
Entropy (-TS)              =      -0.000030498565
Free energy (A=E-TS)       =   -3677.804975649613
Est. 0K Energy 0.5*(E+A)   =   -3677.804960400319
Residual Non-orthogonality =       0.000000000000
Residual N_electrons       =      -0.000000000023

Spin          Integrated_Ne            Fermi_level     Delta_Fermi_level
   1      2560.000000000402         0.058236655781             -6.76E-03

                           Spin 1          
     Orb      H-eigenvalues     Occupancies
       1 |    -0.6586176001    1.0000000000 | 
                          ------
    1276 |     0.0220319879    0.9999891630 | 
    1277 |     0.0220331351    0.9999891590 | 
    1278 |     0.0220911522    0.9999889586 | 
    1279 |     0.0220929552    0.9999889523 | 
    1280 |     0.0221229409    0.9999888472 | 
                 - Gap at zero temperature -
    1281 |     0.0943805008    0.0000110472 | 
    1282 |     0.0943815122    0.0000110437 | 
    1283 |     0.0943864254    0.0000110265 | 
    1284 |     0.0943880592    0.0000110208 | 
    1285 |     0.0943912543    0.0000110097 | 
                          ------
    2560 |     0.8733292332    0.0000000000 | 

                       |  Abs_value |  Threshold | Converged
     Delta_Free_energy |   4.22E-03 |   1.00E-06 |        No
     Delta_Energy      |   4.22E-03 |   1.00E-04 |        No
     Delta_Entropy     |   1.63E-08 |   1.00E-04 |       Yes
     Commutator        |   2.16E-05 |   1.00E-05 |        No
     Delta_Fermi_level |   6.76E-03 |   1.00E-03 |        No

  Line search of the free energy minimum:
  Step_type        Step             Free_energy   Predicted_free_energy
.   Initial    0.000000    -3677.80497564961343
.    Trial1    0.821535    -3677.80314810056461
.    Trial2    0.313798    -3677.80544143678708
. Quadratic    0.258501    -3677.80546384786703    -3677.80546377376913

--------------------------------------------------------------------------------
  Iter                              Commutator    Free_energy(A=E-TS)     DeltaA
#    2                          0.000008104599   -3677.80546384786703  -4.88E-04

Step                       =       0.258500583164
Energy                     =   -3677.805433369414
Entropy (-TS)              =      -0.000030478399
Free energy (A=E-TS)       =   -3677.805463847867
Est. 0K Energy 0.5*(E+A)   =   -3677.805448608641
Residual Non-orthogonality =       0.000000000000
Residual N_electrons       =      -0.000000000054

Spin          Integrated_Ne            Fermi_level     Delta_Fermi_level
   1      2560.000000000928         0.057884266854             -3.52E-04

                           Spin 1          
     Orb      H-eigenvalues     Occupancies
       1 |    -0.6592198581    1.0000000000 | 
                          ------
    1276 |     0.0217195287    0.9999890255 | 
    1277 |     0.0217204839    0.9999890221 | 
    1278 |     0.0217754589    0.9999888299 | 
    1279 |     0.0217773570    0.9999888232 | 
    1280 |     0.0218058851    0.9999887221 | 
                 - Gap at zero temperature -
    1281 |     0.0940718741    0.0000108956 | 
    1282 |     0.0940727541    0.0000108925 | 
    1283 |     0.0940775455    0.0000108761 | 
    1284 |     0.0940793818    0.0000108698 | 
    1285 |     0.0940823334    0.0000108596 | 
                          ------
    2560 |     0.8727214865    0.0000000000 | 

                       |  Abs_value |  Threshold | Converged
     Delta_Free_energy |   4.88E-04 |   1.00E-06 |        No
     Delta_Energy      |   4.88E-04 |   1.00E-04 |        No
     Delta_Entropy     |   2.02E-08 |   1.00E-04 |       Yes
     Commutator        |   8.10E-06 |   1.00E-05 |       Yes
     Delta_Fermi_level |   3.52E-04 |   1.00E-03 |       Yes

  Line search of the free energy minimum:
  Step_type        Step             Free_energy   Predicted_free_energy
.   Initial    0.000000    -3677.80546384786703
.    Trial1    0.258501    -3677.80552301244052
.    Trial2    0.541728    -3677.80552657203089
. Quadratic    0.415852    -3677.80553289537920    -3677.80553289873023

--------------------------------------------------------------------------------
  Iter                              Commutator    Free_energy(A=E-TS)     DeltaA
#    3                          0.000004778375   -3677.80553289537920  -6.90E-05

Step                       =       0.415852143239
Energy                     =   -3677.805502445161
Entropy (-TS)              =      -0.000030450214
Free energy (A=E-TS)       =   -3677.805532895379
Est. 0K Energy 0.5*(E+A)   =   -3677.805517670270
Residual Non-orthogonality =       0.000000000000
Residual N_electrons       =      -0.000000000004

Spin          Integrated_Ne            Fermi_level     Delta_Fermi_level
   1      2560.000000000063         0.057461871016             -4.22E-04

                           Spin 1          
     Orb      H-eigenvalues     Occupancies
       1 |    -0.6599276527    1.0000000000 | 
                          ------
    1276 |     0.0213108177    0.9999889779 | 
    1277 |     0.0213115906    0.9999889752 | 
    1278 |     0.0213628656    0.9999887953 | 
    1279 |     0.0213648769    0.9999887882 | 
    1280 |     0.0213916276    0.9999886931 | 
                 - Gap at zero temperature -
    1281 |     0.0936699799    0.0000108253 | 
    1282 |     0.0936707418    0.0000108227 | 
    1283 |     0.0936754020    0.0000108067 | 
    1284 |     0.0936774406    0.0000107998 | 
    1285 |     0.0936801563    0.0000107905 | 
                          ------
    2560 |     0.8720226870    0.0000000000 | 

                       |  Abs_value |  Threshold | Converged
     Delta_Free_energy |   6.90E-05 |   1.00E-06 |        No
     Delta_Energy      |   6.91E-05 |   1.00E-04 |       Yes
     Delta_Entropy     |   2.82E-08 |   1.00E-04 |       Yes
     Commutator        |   4.78E-06 |   1.00E-05 |       Yes
     Delta_Fermi_level |   4.22E-04 |   1.00E-03 |       Yes

  Line search of the free energy minimum:
  Step_type        Step             Free_energy   Predicted_free_energy
.   Initial    0.000000    -3677.80553289537920
.    Trial1    0.415852    -3677.80555333284610
.    Trial2    0.638977    -3677.80553240867266
. Quadratic    0.317786    -3677.80555548529446    -3677.80555548394659

--------------------------------------------------------------------------------
  Iter                              Commutator    Free_energy(A=E-TS)     DeltaA
#    4                          0.000002970336   -3677.80555548529446  -2.26E-05

Step                       =       0.317785708506
Energy                     =   -3677.805525049728
Entropy (-TS)              =      -0.000030435535
Free energy (A=E-TS)       =   -3677.805555485294
Est. 0K Energy 0.5*(E+A)   =   -3677.805540267511
Residual Non-orthogonality =       0.000000000000
Residual N_electrons       =      -0.000000000031

Spin          Integrated_Ne            Fermi_level     Delta_Fermi_level
   1      2560.000000000540         0.057274657513             -1.87E-04

                           Spin 1          
     Orb      H-eigenvalues     Occupancies
       1 |    -0.6602436863    1.0000000000 | 
[...]
 C   160 -- C   385       -0.09      5.37000
 C   159 -- C   384       -0.09      5.37000
 C   158 -- C   383       -0.09      5.37000
 C   157 -- C   382       -0.09      5.37000
 C   156 -- C   381       -0.09      5.37000
 C   155 -- C   355       -0.09      5.37000
 C   154 -- C   354       -0.09      5.37000
 C   153 -- C   353       -0.09      5.37000
 C   152 -- C   352       -0.09      5.37000
 C   151 -- C   351       -0.09      5.37000
 C   140 -- C   335       -0.09      5.37000
 C   139 -- C   334       -0.09      5.37000
 C   138 -- C   333       -0.09      5.37000
 C   137 -- C   332       -0.09      5.37000
 C   136 -- C   331       -0.09      5.37000
 C   115 -- C   325       -0.09      5.37000
 C   114 -- C   324       -0.09      5.37000
 C   113 -- C   323       -0.09      5.37000
 C   112 -- C   322       -0.09      5.37000
 C   111 -- C   321       -0.09      5.37000
 C   219 -- C   569       -0.09      5.37202
 C   218 -- C   568       -0.09      5.37202
 C   217 -- C   567       -0.09      5.37202
 C   216 -- C   566       -0.09      5.37202
 C   250 -- C   540       -0.09      5.37202
 C   249 -- C   539       -0.09      5.37202
 C   248 -- C   538       -0.09      5.37202
 C   247 -- C   537       -0.09      5.37202
 C   246 -- C   536       -0.09      5.37202
 C   220 -- C   570       -0.09      5.37202
 C   285 -- C   580       -0.09      5.37202
 C   284 -- C   579       -0.09      5.37202
 C   283 -- C   578       -0.09      5.37202
 C   282 -- C   577       -0.09      5.37202
 C   281 -- C   576       -0.09      5.37202
 C   260 -- C   605       -0.09      5.37202
 C   259 -- C   604       -0.09      5.37202
 C   258 -- C   603       -0.09      5.37202
 C   257 -- C   602       -0.09      5.37202
 C   256 -- C   601       -0.09      5.37202
 C   220 -- C   515       -0.09      5.37202
 C   219 -- C   514       -0.09      5.37202
 C   218 -- C   513       -0.09      5.37202
 C   217 -- C   512       -0.09      5.37202
 C   216 -- C   511       -0.09      5.37202
 C   195 -- C   540       -0.09      5.37202
 C   195 -- C   500       -0.09      5.37202
 C   194 -- C   539       -0.09      5.37202
 C   194 -- C   499       -0.09      5.37202
 C   193 -- C   538       -0.09      5.37202
 C   193 -- C   498       -0.09      5.37202
 C   192 -- C   537       -0.09      5.37202
 C   192 -- C   497       -0.09      5.37202
 C   191 -- C   536       -0.09      5.37202
 C   191 -- C   496       -0.09      5.37202
 C   180 -- C   515       -0.09      5.37202
 C   179 -- C   514       -0.09      5.37202
 C   178 -- C   513       -0.09      5.37202
 C   177 -- C   512       -0.09      5.37202
 C   176 -- C   511       -0.09      5.37202
 C    11 -- C   331       -0.09      5.37202
 C   205 -- C   550       -0.09      5.37202
 C   204 -- C   549       -0.09      5.37202
 C   203 -- C   548       -0.09      5.37202
 C   202 -- C   547       -0.09      5.37202
 C   201 -- C   546       -0.09      5.37202
 C    95 -- C   425       -0.09      5.37202
 C    95 -- C   365       -0.09      5.37202
 C    94 -- C   424       -0.09      5.37202
 C    94 -- C   364       -0.09      5.37202
 C    93 -- C   423       -0.09      5.37202
 C    93 -- C   363       -0.09      5.37202
 C    92 -- C   422       -0.09      5.37202
 C    92 -- C   362       -0.09      5.37202
 C    91 -- C   421       -0.09      5.37202
 C    91 -- C   361       -0.09      5.37202
 C    40 -- C   365       -0.09      5.37202
 C    39 -- C   364       -0.09      5.37202
 C    38 -- C   363       -0.09      5.37202
 C    37 -- C   362       -0.09      5.37202
 C    36 -- C   361       -0.09      5.37202
 C    15 -- C   335       -0.09      5.37202
 C    65 -- C   395       -0.09      5.37202
 C    65 -- C   345       -0.09      5.37202
 C    64 -- C   394       -0.09      5.37202
 C    64 -- C   344       -0.09      5.37202
 C    63 -- C   393       -0.09      5.37202
 C    30 -- C   355       -0.09      5.37202
 C    63 -- C   343       -0.09      5.37202
 C    62 -- C   392       -0.09      5.37202
 C    30 -- C   325       -0.09      5.37202
 C    14 -- C   334       -0.09      5.37202
 C    62 -- C   342       -0.09      5.37202
 C    61 -- C   391       -0.09      5.37202
 C    29 -- C   354       -0.09      5.37202
 C    61 -- C   341       -0.09      5.37202
 C    29 -- C   324       -0.09      5.37202
 C   260 -- C   550       -0.09      5.37202
 C   259 -- C   549       -0.09      5.37202
 C    28 -- C   353       -0.09      5.37202
 C   258 -- C   548       -0.09      5.37202
 C   257 -- C   547       -0.09      5.37202
 C   256 -- C   546       -0.09      5.37202
 C    28 -- C   323       -0.09      5.37202
 C    27 -- C   352       -0.09      5.37202
 C    13 -- C   333       -0.09      5.37202
 C    27 -- C   322       -0.09      5.37202
 C   120 -- C   395       -0.09      5.37202
 C    26 -- C   351       -0.09      5.37202
 C   119 -- C   394       -0.09      5.37202
 C   118 -- C   393       -0.09      5.37202
 C    55 -- C   335       -0.09      5.37202
 C   117 -- C   392       -0.09      5.37202
 C    26 -- C   321       -0.09      5.37202
 C   116 -- C   391       -0.09      5.37202
 C    54 -- C   334       -0.09      5.37202
 C    12 -- C   332       -0.09      5.37202
 C    53 -- C   333       -0.09      5.37202
 C   230 -- C   580       -0.09      5.37202
 C   230 -- C   525       -0.09      5.37202
 C   229 -- C   579       -0.09      5.37202
 C   229 -- C   524       -0.09      5.37202
 C   228 -- C   578       -0.09      5.37202
 C    52 -- C   332       -0.09      5.37202
 C   228 -- C   523       -0.09      5.37202
 C   227 -- C   577       -0.09      5.37202
 C   227 -- C   522       -0.09      5.37202
 C   226 -- C   576       -0.09      5.37202
 C   226 -- C   521       -0.09      5.37202
 C    51 -- C   331       -0.09      5.37202
 C    23 -- C   478       -0.09      5.37202
 C    49 -- C   469       -0.09      5.37202
 C    48 -- C   468       -0.09      5.37202
 C    47 -- C   467       -0.09      5.37202
 C    22 -- C   477       -0.09      5.37202
 C    46 -- C   466       -0.09      5.37202
 C    21 -- C   476       -0.09      5.37202
 C    85 -- C   355       -0.09      5.37202
 C    84 -- C   354       -0.09      5.37202
 C    83 -- C   353       -0.09      5.37202
 C    82 -- C   352       -0.09      5.37202
 C    81 -- C   351       -0.09      5.37202
 C    55 -- C   385       -0.09      5.37202
 C    54 -- C   384       -0.09      5.37202
 C    25 -- C   480       -0.09      5.37202
 C    53 -- C   383       -0.09      5.37202
 C    52 -- C   382       -0.09      5.37202
 C    51 -- C   381       -0.09      5.37202
 C    24 -- C   479       -0.09      5.37202
 C    50 -- C   470       -0.09      5.37202
 C    24 -- C   449       -0.09      5.37202
 C     6 -- C   416       -0.09      5.37202
 C    23 -- C   448       -0.09      5.37202
 C    22 -- C   447       -0.09      5.37202
 C    10 -- C   470       -0.09      5.37202
 C     5 -- C   450       -0.09      5.37202
 C    21 -- C   446       -0.09      5.37202
 C    10 -- C   420       -0.09      5.37202
 C     9 -- C   469       -0.09      5.37202
 C     9 -- C   419       -0.09      5.37202
 C     8 -- C   468       -0.09      5.37202
 C     4 -- C   449       -0.09      5.37202
 C   150 -- C   440       -0.09      5.37202
 C   149 -- C   439       -0.09      5.37202
 C   148 -- C   438       -0.09      5.37202
 C   147 -- C   437       -0.09      5.37202
 C     8 -- C   418       -0.09      5.37202
 C   146 -- C   436       -0.09      5.37202
 C     2 -- C   447       -0.09      5.37202
 C   135 -- C   460       -0.09      5.37202
 C     7 -- C   467       -0.09      5.37202
 C   134 -- C   459       -0.09      5.37202
 C   133 -- C   458       -0.09      5.37202
 C   132 -- C   457       -0.09      5.37202
 C   131 -- C   456       -0.09      5.37202
 C     7 -- C   417       -0.09      5.37202
 C     1 -- C   446       -0.09      5.37202
 C     6 -- C   466       -0.09      5.37202
 C    25 -- C   450       -0.09      5.37202
 C     3 -- C   448       -0.09      5.37202
 C   106 -- C   436       -0.09      5.37202
 C   106 -- C   376       -0.09      5.37202
 C    80 -- C   410       -0.09      5.37202
 C    79 -- C   409       -0.09      5.37202
 C    78 -- C   408       -0.09      5.37202
 C    77 -- C   407       -0.09      5.37202
 C    76 -- C   406       -0.09      5.37202
 C   135 -- C   410       -0.09      5.37202
 C   134 -- C   409       -0.09      5.37202
 C   133 -- C   408       -0.09      5.37202
 C   132 -- C   407       -0.09      5.37202
 C   131 -- C   406       -0.09      5.37202
 C   110 -- C   440       -0.09      5.37202
 C   110 -- C   380       -0.09      5.37202
 C   109 -- C   439       -0.09      5.37202
 C   109 -- C   379       -0.09      5.37202
 C   108 -- C   438       -0.09      5.37202
 C   108 -- C   378       -0.09      5.37202
 C   107 -- C   437       -0.09      5.37202
 C   107 -- C   377       -0.09      5.37202
 C   215 -- C   635       -0.09      5.38000
 C   214 -- C   634       -0.09      5.38000
 C   213 -- C   633       -0.09      5.38000
 C   212 -- C   632       -0.09      5.38000
 C   211 -- C   631       -0.09      5.38000
 C   190 -- C   620       -0.09      5.38000
 C   189 -- C   619       -0.09      5.38000
 C   188 -- C   618       -0.09      5.38000
 C   187 -- C   617       -0.09      5.38000
 C   186 -- C   616       -0.09      5.38000
 C   175 -- C   595       -0.09      5.38000
 C   174 -- C   594       -0.09      5.38000
 C   173 -- C   593       -0.09      5.38000
 C   172 -- C   592       -0.09      5.38000
 C   171 -- C   591       -0.09      5.38000
 C   245 -- C   640       -0.09      5.38000
 C   244 -- C   639       -0.09      5.38000
 C   243 -- C   638       -0.09      5.38000
 C   242 -- C   637       -0.09      5.38000
 C   241 -- C   636       -0.09      5.38000
==================================================


=================== Orbital energy and occupancy information ===================

      Total number of orbitals:    2560
        Occupancy sum (kernel):    1280.000000000
   Occupancy sum (eigenvalues):    1280.000000000
                 HOMO-LUMO gap:       0.000001292 Eh
                 Mid-gap level:       0.172576865 Eh

                        Orbital | Energy (Eh) | Occupancy
                            1    -0.577229512   1.0000000
                        .......   ...........   .........
                         1272     0.100399328   0.9999893
                         1273     0.100861268   0.9999876
                         1274     0.100864859   0.9999876
                         1275     0.101047425   0.9999869
                         1276     0.101049459   0.9999869
                         1277     0.101297688   0.9999858
                         1278     0.101514215   0.9999848
                         1279     0.101516249   0.9999848
                         1280     0.101764883   0.9999836
                         1281     0.172576219   0.0000117
                        ....... -- gap at 0K -- .........
                         1282     0.172577511   0.0000117
                         1283     0.172613269   0.0000116
                         1284     0.172614887   0.0000116
                         1285     0.172637381   0.0000115
                         1286     0.172831656   0.0000108
                         1287     0.172832963   0.0000108
                         1288     0.172867715   0.0000107
                         1289     0.172869352   0.0000107
                         1290     0.172891256   0.0000106
                         1291     0.173035405   0.0000101
                        .......   ...........   .........
                         2560     1.018357068   0.0000000

================================================================================

===================== Writing canonical molecular orbitals =====================
| Orbital  Energy (eV)  Norm     |
| HOMO      4.69603787  1.000000 | Writing "4.69556_GO_manual_4x64graphite_HOMO.cube" ... done
Writing "4.69556_GO_manual_4x64graphite_HOMO.dx" ... done
| LUMO      4.69607304  1.000000 | Writing "4.69556_GO_manual_4x64graphite_LUMO.cube" ... done
Writing "4.69556_GO_manual_4x64graphite_LUMO.dx" ... done
================================================================================
 
===================== Density of States (DOS) calculation ======================
Writing "4.69556_GO_manual_4x64graphite_DOS.txt" ...  done
================================================================================
 
Writing bands to file "4.69556_GO_manual_4x64graphite.val_bands" ... done
 
================ Projected Density of States (pDOS) calculation ================
 
Constructing AM resolved functions  ...... done
Writing NGWF plot files in formats: CUBE DX ...  done
 
Performing overlap integrals ...  done
 
Computing pDOS weights ...  done
 
All bands spilling parameter =   2.73 %
Occupancy-weighted spilling parameter =   1.02 %
 
 => Outputting data for OptaDOS <=
 
Writing pDOS weights to file "4.69556_GO_manual_4x64graphite.val_pdos_bin" ... done
 
Writing band gradients to file "4.69556_GO_manual_4x64graphite.val_dome_bin" ... done
 
Writing Castep output cell file to "4.69556_GO_manual_4x64graphite-out.cell" ... done
 
 => Computing Gaussian smeared pDOS <= 
Writing "4.69556_GO_manual_4x64graphite_PDOS.txt" ...  done
 
 => Computing Occupancy-weighted Gaussian smeared pDOS <= 
Writing "4.69556_GO_manual_4x64graphite_occ_PDOS.txt" ...  done
  => Band centres: 
 S band centre of group 1:  -15.626214 eV
 P band centre of group 1:   -8.508658 eV
  Band centres done. <=
  => Integrated number of electrons in each AM band: 
 S num electrons of group 1:  574.271392
 P num electrons of group 1: 1959.611461
  Integrated number of electrons done. <=
================================================================================

------------------------------ TIMING INFORMATION ------------------------------
AVERAGE TIME:    2505.991s on     40 node(s)                                    
TOTAL TIME:      2505.992s on     40 node(s)                                    
================= AVERAGE TIMINGS FROM ALL NODES (CUMULATIVE) ==================
|| TAG                                    #calls    cpu time   %total  Gflops ||
|| work_imbalance                       :     1        0.00s   0.000%  ------ ||
|| paw_tcore_density                    :     1        0.01s   0.000%  ------ ||
|| paw_tcore_hartree_on_grid            :     1        0.01s   0.001%  ------ ||
|| paw_sphere_density_on_grid           :     1        0.01s   0.001%  ------ ||
|| sparse_set_to_garbage                :   135        0.02s   0.001%  ------ ||
|| paw_dij_hartree                      :   264        0.03s   0.001%  ------ ||
|| basis_extract_function_from_box      :  1536        0.06s   0.003%  ------ ||
|| pseudo_make_structure_factor         :     1        0.07s   0.003%  ------ ||
|| paw_species_calc_proj_prec_mat       :     1        0.12s   0.005%  ------ ||
|| paw_dataset_init                     :     1        0.17s   0.007%  ------ ||
|| density_init_guess_real              :     1        0.23s   0.009%  ------ ||
|| ngwfs_initialise_from_radial         :     2        0.66s   0.027%  ------ ||
|| restart_kernel_write                 :    13        0.83s   0.033%  ------ ||
|| sparse_init                          :     1        0.86s   0.034%  ------ ||
|| dense_normal_eigensolve              :     1        1.08s   0.043%  ------ ||
|| hartree_on_grid                      :   198        1.56s   0.062%  ------ ||
|| projectors_init_fftbox_recip         :   121        2.34s   0.094%  ------ ||
|| fourier_apply_box_pair               :  2272        3.77s   0.150% 559.541 ||
|| basis_copy_function_to_box           : 19008        4.10s   0.164%  ------ ||
|| augmentation_screen_dij              :   203        4.48s   0.179%  ------ ||
|| ewald_calculate_energy               :     1        5.26s   0.210%  ------ ||
|| sparse_embed_hotelling_invert_embed  :    23        6.67s   0.266%  ------ ||
|| sw_init                              :     1        6.73s   0.269%  ------ ||
|| ngwf_gradient_coeffs                 :    12        8.70s   0.347%  ------ ||
|| sparse_trace                         :  2382        9.37s   0.374%  ------ ||
|| fourier_apply_cell_forward           :  5714       15.67s   0.625%  61.302 ||
|| fourier_apply_cell_backward          :  6109       15.77s   0.629%  65.153 ||
|| cell_grid_deposit_box_real           : 25520       16.81s   0.671%  ------ ||
|| cell_grid_extract_box_real           :  8060       17.12s   0.683%  ------ ||
|| paw_dij_xc                           :   264       31.28s   1.248%  ------ ||
|| density_fftbox_deposit_to_cell       : 12672       33.81s   1.349%  ------ ||
|| augmentation_density_on_grid         :   198       34.16s   1.363%  ------ ||
|| aug_nonlocal_mat                     :   252       36.01s   1.437%  ------ ||
|| function_ops_brappd_ketppd           :    48       37.20s   1.484%  ------ ||
|| projectors_func_ovlp_box             :    24       37.69s   1.504%  ------ ||
|| hamiltonian_energy_components        :     3       38.60s   1.540%  ------ ||
|| eigenstates_pdos                     :     1       51.77s   2.066%  ------ ||
|| integrals_kinetic                    :    23       55.57s   2.218%  ------ ||
|| eigenstates_calculate                :     1       56.54s   2.256%  ------ ||
|| nlxc_vdw_energy                      :   394       65.95s   2.632%  ------ ||
|| xc_energy_potential                  :   197       68.68s   2.740%  ------ ||
|| dense_eigensolve                     :   171       87.18s   3.479%  ------ ||
|| sparse_product                       :  2443       93.63s   3.736%  ------ ||
|| potential_apply_to_ngwf_batch        :   252       98.82s   3.943%  ------ ||
|| properties_calculate                 :     1      107.68s   4.297%  ------ ||
|| basis_dot_function_with_box          : 4.175M     113.95s   4.547%  ------ ||
|| restart_ngwfs_tightbox_output        :    11      136.27s   5.438%  ------ ||
|| projectors_gradient_batch            :    48      147.14s   5.872%  ------ ||
|| integrals_locpot_mat_els_batch       :   252      153.12s   6.110%  ------ ||
|| fourier_apply_box                    : 60064      186.41s   7.438% 976.315 ||
|| edft_diag_ngwf_ham                   :   170      191.87s   7.657%  ------ ||
|| projectors_grad_precond_batch        :    48      201.41s   8.037%  ------ ||
|| density_fftbox_interpolate_multiply  : 12672      245.80s   9.808%  ------ ||
|| integrals_locpot_dbl_grid            :    63      252.77s  10.087%  ------ ||
|| basis_add_function_to_box            : 11.71M     308.06s  12.293%  ------ ||
|| density_batch_interp_deposit         :   792      310.74s  12.400%  ------ ||
|| edft_apply_smearing_operator         :   170      371.42s  14.821%  ------ ||
|| ngwf_gradient_build_batch            :    48      385.09s  15.367%  ------ ||
|| density_batch_row_sums               :   792      425.21s  16.968%  ------ ||
|| ngwf_gradient_batch                  :    48      513.80s  20.503%  ------ ||
|| ngwf_gradient_lnv                    :    12      533.35s  21.283%  ------ ||
|| density_on_dbl_grid                  :   198      748.22s  29.857%  ------ ||
|| hamiltonian_lhxc_calculate           :   193      833.34s  33.254%  ------ ||
|| edft_calculate                       :    12     1458.68s  58.208%  ------ ||
|| ngwf_cg_optimise                     :     1     2372.89s  94.689%  ------ ||
|| total_time                           :     1     2505.99s 100.000%  ------ ||
================================================================================
Overhead of generating timer report: 
- 0 ms averaging over threads,
- 5 ms ensuring consistency across MPI ranks,
- 0 ms printing in order.

Job completed: 06-03-2020 03:27 (-0000)

