 +---------------------------------------------------------------+
 |                                                               |
 |        ####### #     # ####### ####### ####### ######         |
 |        #     # ##    # #          #    #       #     #        |
 |        #     # # #   # #          #    #       #     #        |
 |        #     # #  #  # #####      #    #####   ######         |
 |        #     # #   # # #          #    #       #              |
 |        #     # #    ## #          #    #       #              |
 |        ####### #     # #######    #    ####### #              |
 |                                                               |
 |        Linear-Scaling Ab Initio Total Energy Program          |
 |                                                               |
 |          Release for academic collaborators of ODG            |
 |                                             Version 5.3.2.12  |
 |                                                               |
 +---------------------------------------------------------------+
 |                                                               |
 |  Authors:                                                     |
 |  Jacek Dziedzic, Peter D. Haynes, Nicholas D. M. Hine,        |
 |  Arash. A. Mostofi, Mike C. Payne and Chris-Kriton Skylaris   |
 |                                                               |
 |  Contributors:                                                |
 |  J. Aarons, L. Andrinopoulos, P. W. Avraam, R. A. Bell,       |
 |  A. Bhandari, G. A. Bramley, R. J. Charlton, S. J. Clark,     |
 |  R. J. Clements, G. C. Constantinescu, F. Corsetti,           |
 |  N. Corsini, O. Dieguez, S. M. M. Dubois, K. K. B. Duff,      |
 |  J. M. Escartin, A. Greco, H. Helal, Q. O. Hill, L. P. Lee,   |
 |  J.-H. Li, E. B. Linscott, G. Moynihan, D. D. O`Regan,        |
 |  O. K. Okan, M. J. S. Phipps, C. J. Pickard,                  |
 |  J. C. A. Prentice, M. I. J. Probert, L. E. Ratcliff,         |
 |  M. Robinson, A. Ruiz Serrano, J. S. Spencer, E. W. Tait,     |
 |  G. Teobaldi, D. Turban, V. Vitale, K. A. Wilkinson,          |
 |  C. Weber, J. C. Womack, N. Yeung and T. J. Zuehlsdorff       |
 |                                                               |
 |                                   Copyright (c) 2004-2020     |
 |                                                               |
 |  Please cite:                                                 |
 |  "Introducing ONETEP: Linear-scaling density functional       |
 |   simulations on parallel computers".                         |
 |   C.-K. Skylaris, P. D. Haynes, A. A. Mostofi, M. C. Payne.   |
 |   J. Chem. Phys. 122 084119 (2005).                           |
 |                                                               |
 |          in all publications arising from your use of ONETEP. |
 |                                                               |
 +---------------------------------------------------------------+
 |                                                               |
 |   ONETEP is based on developments described in the following  |
 |   publications:                                               |
 |                                                               |
 |  "Nonorthogonal generalized Wannier function pseudopotential  |
 |   plane-wave method".                                         |
 |   C.-K. Skylaris, A. A. Mostofi, P. D. Haynes, O. Dieguez,    |
 |   M. C. Payne.                                                |
 |   Phys. Rev. B 66 035119 (2002).                              |
 |                                                               |
 |  "Preconditioned iterative minimization for linear-scaling    |
 |   electronic structure calculations".                         |
 |   A. A. Mostofi, P. D. Haynes, C.-K. Skylaris, M. C. Payne.   |
 |   J. Chem. Phys. 119(17), pp.8842-8848 (2003).                |
 |                                                               |
 |  "Total-energy calculations on a real space grid with         |
 |   localized functions and a plane-wave basis".                |
 |   A. A. Mostofi, C.-K. Skylaris, P. D. Haynes, M. C. Payne.   |
 |   Comput. Phys. Commun. 147, pp.788-802 (2002).               |
 |                                                               |
 |  "Accurate kinetic energy evaluation in electronic structure  |
 |   calculations with localized functions on real space grids"  |
 |   C.-K. Skylaris, A. A. Mostofi, P. D. Haynes, C. J. Pickard, |
 |   M. C. Payne.                                                |
 |   Comput. Phys. Commun. 140, pp.315-322 (2001).               |
 |                                                               |
 |  "Accurate ionic forces and geometry optimization in linear-  |
 |   scaling density-functional theory with local orbitals"      |
 |   N. D. M. Hine, M. Robinson, P. D. Haynes, C.-K. Skylaris,   |
 |   M. C. Payne, and A. A. Mostofi.                             |
 |   Phys. Rev. B 83 195102 (2011).                              |
 |                                                               |
 +---------------------------------------------------------------+

Job started: 09-03-2020 15:08 (-0000)
 
Reading parameters from file "6.03712_GO_manual_4x64graphite.dat" ...

WARNING: "cutoff_energy" not specified, but "psinc_spacing" specified.
         Using the latter to set the KE cutoff energy to  732.32021eV,
         thus *overriding* the default.

... done

If your calculation crashes here, before "Checking processes and threads..."
is displayed, then your stack size is insufficient.
If so, use "ulimit -s unlimited" at runtime.
You can disable this check with "check_stack_size F".

Checking processes and threads...
   Determining the default number of threads...
      No default threads set at compilation time: defaulting to 1.
      OpenMP library call suggests 4 threads.
      Hybrid MPI-OpenMP compilation detected.
      Number of MPI processes > 1.
      OMP_NUM_THREADS environment variable present and
      its value matches the one obtained from the OpenMP library call.
      Using this value as default.
      Default threads: 4
      Default applies to threads_max and threads_num_fftboxes.
      Settings in the input file override this default.
   ... done

   Running with 40 MPI processes.
   There are 10 MPI processes running on the same node as the root process.
   Each MPI process is using: 
               1 threads for simulation cell FFTs.
               1 threads for parallel FFT box operations.
               4 threads for loops over batched FFT box operations.
               4 threads in other parallel regions.
... done

Basic input checks...
Resetting ngwf_cg_rotate to TRUE for EDFT calculations
... done

Reading geometry and species blocks from file "6.03712_GO_manual_4x64graphite.dat" ...
    
  PSINC grid spacing along a1 set to   0.511215680000a0 from input file.
  PSINC grid spacing along a2 set to   0.531284090000a0 from input file.
  PSINC grid spacing along a3 set to   0.507045630000a0 from input file.
  Number of PPD points along a3 set to 1.  This is 
  the default value, it may have been provided also in the input file.
... done
 Writing xyz coordinates to file "6.03712_GO_manual_4x64graphite.xyz" ... done


--------------------------------------------------------------------------------
---------------------------------- INPUT FILE ----------------------------------
--------------------------------------------------------------------------------

task : singlepoint                                                              
do_properties : true                                                            
dx_format T                                                                     
edft T                                                                          
output_detail VERBOSE                                                           
write_xyz T                                                                     
xc_functional VDWDF2                                                            
PSINC_SPACING 0.51121568 0.53128409 0.50704563                                  
paw T                                                                           
pdos_max_l = 2                                                                  
dos_smear  0.1 eV                                                               
popn_calculate T                                                                
PDOS_PSEUDOATOMIC T                                                             
PDOS_REDUCE_SWS F                                                               
PDOS_CONSTRUCT_BASIS F                                                          
PDOS_LOWDIN T                                                                   
PDOS_ORTH_ATOM_BLOCKS F                                                         
PDOS_LCAO_OPTIMIZE F                                                            
pdos_optados_output T                                                           
homo_plot 0                                                                     
lumo_plot 0                                                                     
homo_dens_plot -1                                                               
lumo_dens_plot -1                                                               
%BLOCK SPECIES                                                                  
C C 6 4 9.0                                                                     
%ENDBLOCK SPECIES                                                               
%BLOCK SPECIES_POT                                                              
C "~/pp/paw/c_pbe_abinit.paw"                                                   
%ENDBLOCK SPECIES_POT                                                           
%BLOCK SPECIES_ATOMIC_SET                                                       
C "SOLVE conf=2s2 2p2"                                                          
%ENDBLOCK SPECIES_ATOMIC_SET                                                    
%BLOCK LATTICE_CART                                                             
32.21  0.00  0.00                                                               
0.00 18.59  0.00                                                                
0.00  0.00 114.09                                                               
%ENDBLOCK LATTICE_CART                                                          
%BLOCK POSITIONS_ABS                                                            
C  0.00  0.00  5.70                                                             
C  0.00  0.00 28.52                                                             
C  0.00  0.00 51.34                                                             
C  0.00  0.00 74.16                                                             
C  0.00  0.00 96.97                                                             
C  0.00  4.65  5.70                                                             
C  0.00  4.65 28.52                                                             
C  0.00  4.65 51.34                                                             
C  0.00  4.65 74.16                                                             
C  0.00  4.65 96.97                                                             
C  4.03  2.32  5.70                                                             
C  4.03  2.32 28.52                                                             
C  4.03  2.32 51.34                                                             
C  4.03  2.32 74.16                                                             
C  4.03  2.32 96.97                                                             
C  8.05  0.00  5.70                                                             
C  8.05  0.00 28.52                                                             
C  8.05  0.00 51.34                                                             
C  8.05  0.00 74.16                                                             
C  8.05  0.00 96.97                                                             
C  0.00  9.30  5.70                                                             
C  0.00  9.30 28.52                                                             
C  0.00  9.30 51.34                                                             
C  0.00  9.30 74.16                                                             
C  0.00  9.30 96.97                                                             
C  4.03  6.97  5.70                                                             
C  4.03  6.97 28.52                                                             
C  4.03  6.97 51.34                                                             
C  4.03  6.97 74.16                                                             
C  4.03  6.97 96.97                                                             
C  8.05  4.65  5.70                                                             
C  8.05  4.65 28.52                                                             
C  8.05  4.65 51.34                                                             
C  8.05  4.65 74.16                                                             
C  8.05  4.65 96.97                                                             
C 12.08  2.32  5.70                                                             
C 12.08  2.32 28.52                                                             
C 12.08  2.32 51.34                                                             
C 12.08  2.32 74.16                                                             
C 12.08  2.32 96.97                                                             
C 16.10  0.00  5.70                                                             
C 16.10  0.00 28.52                                                             
C 16.10  0.00 51.34                                                             
C 16.10  0.00 74.16                                                             
C 16.10  0.00 96.97                                                             
C  0.00 13.95  5.70                                                             
C  0.00 13.95 28.52                                                             
C  0.00 13.95 51.34                                                             
C  0.00 13.95 74.16                                                             
C  0.00 13.95 96.97                                                             
C  4.03 11.62  5.70                                                             
C  4.03 11.62 28.52                                                             
C  4.03 11.62 51.34                                                             
C  4.03 11.62 74.16                                                             
C  4.03 11.62 96.97                                                             
C  8.05  9.30  5.70                                                             
C  8.05  9.30 28.52                                                             
C  8.05  9.30 51.34                                                             
C  8.05  9.30 74.16                                                             
C  8.05  9.30 96.97                                                             
C 12.08  6.97  5.70                                                             
C 12.08  6.97 28.52                                                             
C 12.08  6.97 51.34                                                             
C 12.08  6.97 74.16                                                             
C 12.08  6.97 96.97                                                             
C 16.10  4.65  5.70                                                             
C 16.10  4.65 28.52                                                             
C 16.10  4.65 51.34                                                             
C 16.10  4.65 74.16                                                             
C 16.10  4.65 96.97                                                             
C 20.13  2.32  5.70                                                             
C 20.13  2.32 28.52                                                             
C 20.13  2.32 51.34                                                             
C 20.13  2.32 74.16                                                             
C 20.13  2.32 96.97                                                             
C 24.16  0.00  5.70                                                             
C 24.16  0.00 28.52                                                             
C 24.16  0.00 51.34                                                             
C 24.16  0.00 74.16                                                             
C 24.16  0.00 96.97                                                             
C  4.03 16.27  5.70                                                             
C  4.03 16.27 28.52                                                             
C  4.03 16.27 51.34                                                             
C  4.03 16.27 74.16                                                             
C  4.03 16.27 96.97                                                             
C  8.05 13.95  5.70                                                             
C  8.05 13.95 28.52                                                             
C  8.05 13.95 51.34                                                             
C  8.05 13.95 74.16                                                             
C  8.05 13.95 96.97                                                             
C 12.08 11.62  5.70                                                             
C 12.08 11.62 28.52                                                             
C 12.08 11.62 51.34                                                             
C 12.08 11.62 74.16                                                             
C 12.08 11.62 96.97                                                             
C 16.10  9.30  5.70                                                             
C 16.10  9.30 28.52                                                             
C 16.10  9.30 51.34                                                             
C 16.10  9.30 74.16                                                             
C 16.10  9.30 96.97                                                             
C 20.13  6.97  5.70                                                             
C 20.13  6.97 28.52                                                             
C 20.13  6.97 51.34                                                             
C 20.13  6.97 74.16                                                             
C 20.13  6.97 96.97                                                             
C 24.16  4.65  5.70                                                             
C 24.16  4.65 28.52                                                             
C 24.16  4.65 51.34                                                             
C 24.16  4.65 74.16                                                             
C 24.16  4.65 96.97                                                             
C 28.18  2.32  5.70                                                             
C 28.18  2.32 28.52                                                             
C 28.18  2.32 51.34                                                             
C 28.18  2.32 74.16                                                             
C 28.18  2.32 96.97                                                             
C 12.08 16.27  5.70                                                             
C 12.08 16.27 28.52                                                             
C 12.08 16.27 51.34                                                             
C 12.08 16.27 74.16                                                             
C 12.08 16.27 96.97                                                             
C 16.10 13.95  5.70                                                             
C 16.10 13.95 28.52                                                             
C 16.10 13.95 51.34                                                             
C 16.10 13.95 74.16                                                             
C 16.10 13.95 96.97                                                             
C 20.13 11.62  5.70                                                             
C 20.13 11.62 28.52                                                             
C 20.13 11.62 51.34                                                             
C 20.13 11.62 74.16                                                             
C 20.13 11.62 96.97                                                             
C 24.16  9.30  5.70                                                             
C 24.16  9.30 28.52                                                             
C 24.16  9.30 51.34                                                             
C 24.16  9.30 74.16                                                             
C 24.16  9.30 96.97                                                             
C 28.18  6.97  5.70                                                             
C 28.18  6.97 28.52                                                             
C 28.18  6.97 51.34                                                             
C 28.18  6.97 74.16                                                             
C 28.18  6.97 96.97                                                             
C 20.13 16.27  5.70                                                             
C 20.13 16.27 28.52                                                             
C 20.13 16.27 51.34                                                             
C 20.13 16.27 74.16                                                             
C 20.13 16.27 96.97                                                             
C 24.16 13.95  5.70                                                             
C 24.16 13.95 28.52                                                             
C 24.16 13.95 51.34                                                             
C 24.16 13.95 74.16                                                             
C 24.16 13.95 96.97                                                             
C 28.18 11.62  5.70                                                             
C 28.18 11.62 28.52                                                             
C 28.18 11.62 51.34                                                             
C 28.18 11.62 74.16                                                             
C 28.18 11.62 96.97                                                             
C 28.18 16.27  5.70                                                             
C 28.18 16.27 28.52                                                             
C 28.18 16.27 51.34                                                             
C 28.18 16.27 74.16                                                             
C 28.18 16.27 96.97                                                             
C  0.00  0.00 17.11                                                             
C  0.00  0.00 39.93                                                             
C  0.00  0.00 62.75                                                             
C  0.00  0.00 85.56                                                             
C  0.00  0.00 108.38                                                            
C  0.00  4.65 17.11                                                             
C  0.00  4.65 39.93                                                             
C  0.00  4.65 62.75                                                             
C  0.00  4.65 85.56                                                             
C  0.00  4.65 108.38                                                            
C  4.03  2.32 17.11                                                             
C  4.03  2.32 39.93                                                             
C  4.03  2.32 62.75                                                             
C  4.03  2.32 85.56                                                             
C  4.03  2.32 108.38                                                            
C  8.05  0.00 17.11                                                             
C  8.05  0.00 39.93                                                             
C  8.05  0.00 62.75                                                             
C  8.05  0.00 85.56                                                             
C  8.05  0.00 108.38                                                            
C  0.00  9.30 17.11                                                             
C  0.00  9.30 39.93                                                             
C  0.00  9.30 62.75                                                             
C  0.00  9.30 85.56                                                             
C  0.00  9.30 108.38                                                            
C  4.03  6.97 17.11                                                             
C  4.03  6.97 39.93                                                             
C  4.03  6.97 62.75                                                             
C  4.03  6.97 85.56                                                             
C  4.03  6.97 108.38                                                            
C  8.05  4.65 17.11                                                             
C  8.05  4.65 39.93                                                             
C  8.05  4.65 62.75                                                             
C  8.05  4.65 85.56                                                             
C  8.05  4.65 108.38                                                            
C 12.08  2.32 17.11                                                             
C 12.08  2.32 39.93                                                             
C 12.08  2.32 62.75                                                             
C 12.08  2.32 85.56                                                             
C 12.08  2.32 108.38                                                            
C 16.10  0.00 17.11                                                             
C 16.10  0.00 39.93                                                             
C 16.10  0.00 62.75                                                             
C 16.10  0.00 85.56                                                             
C 16.10  0.00 108.38                                                            
C  0.00 13.95 17.11                                                             
C  0.00 13.95 39.93                                                             
C  0.00 13.95 62.75                                                             
C  0.00 13.95 85.56                                                             
C  0.00 13.95 108.38                                                            
C  4.03 11.62 17.11                                                             
C  4.03 11.62 39.93                                                             
C  4.03 11.62 62.75                                                             
C  4.03 11.62 85.56                                                             
C  4.03 11.62 108.38                                                            
C  8.05  9.30 17.11                                                             
C  8.05  9.30 39.93                                                             
C  8.05  9.30 62.75                                                             
C  8.05  9.30 85.56                                                             
C  8.05  9.30 108.38                                                            
C 12.08  6.97 17.11                                                             
C 12.08  6.97 39.93                                                             
C 12.08  6.97 62.75                                                             
C 12.08  6.97 85.56                                                             
C 12.08  6.97 108.38                                                            
C 16.10  4.65 17.11                                                             
C 16.10  4.65 39.93                                                             
C 16.10  4.65 62.75                                                             
C 16.10  4.65 85.56                                                             
C 16.10  4.65 108.38                                                            
C 20.13  2.32 17.11                                                             
C 20.13  2.32 39.93                                                             
C 20.13  2.32 62.75                                                             
C 20.13  2.32 85.56                                                             
C 20.13  2.32 108.38                                                            
C 24.16  0.00 17.11                                                             
C 24.16  0.00 39.93                                                             
C 24.16  0.00 62.75                                                             
C 24.16  0.00 85.56                                                             
C 24.16  0.00 108.38                                                            
C  4.03 16.27 17.11                                                             
C  4.03 16.27 39.93                                                             
C  4.03 16.27 62.75                                                             
C  4.03 16.27 85.56                                                             
C  4.03 16.27 108.38                                                            
C  8.05 13.95 17.11                                                             
C  8.05 13.95 39.93                                                             
C  8.05 13.95 62.75                                                             
C  8.05 13.95 85.56                                                             
C  8.05 13.95 108.38                                                            
C 12.08 11.62 17.11                                                             
C 12.08 11.62 39.93                                                             
C 12.08 11.62 62.75                                                             
C 12.08 11.62 85.56                                                             
C 12.08 11.62 108.38                                                            
C 16.10  9.30 17.11                                                             
C 16.10  9.30 39.93                                                             
C 16.10  9.30 62.75                                                             
C 16.10  9.30 85.56                                                             
C 16.10  9.30 108.38                                                            
C 20.13  6.97 17.11                                                             
C 20.13  6.97 39.93                                                             
C 20.13  6.97 62.75                                                             
C 20.13  6.97 85.56                                                             
C 20.13  6.97 108.38                                                            
C 24.16  4.65 17.11                                                             
C 24.16  4.65 39.93                                                             
C 24.16  4.65 62.75                                                             
C 24.16  4.65 85.56                                                             
C 24.16  4.65 108.38                                                            
C 28.18  2.32 17.11                                                             
C 28.18  2.32 39.93                                                             
C 28.18  2.32 62.75                                                             
C 28.18  2.32 85.56                                                             
C 28.18  2.32 108.38                                                            
C 12.08 16.27 17.11                                                             
C 12.08 16.27 39.93                                                             
C 12.08 16.27 62.75                                                             
C 12.08 16.27 85.56                                                             
C 12.08 16.27 108.38                                                            
C 16.10 13.95 17.11                                                             
C 16.10 13.95 39.93                                                             
C 16.10 13.95 62.75                                                             
C 16.10 13.95 85.56                                                             
C 16.10 13.95 108.38                                                            
C 20.13 11.62 17.11                                                             
C 20.13 11.62 39.93                                                             
C 20.13 11.62 62.75                                                             
C 20.13 11.62 85.56                                                             
C 20.13 11.62 108.38                                                            
C 24.16  9.30 17.11                                                             
C 24.16  9.30 39.93                                                             
C 24.16  9.30 62.75                                                             
C 24.16  9.30 85.56                                                             
C 24.16  9.30 108.38                                                            
C 28.18  6.97 17.11                                                             
C 28.18  6.97 39.93                                                             
C 28.18  6.97 62.75                                                             
C 28.18  6.97 85.56                                                             
C 28.18  6.97 108.38                                                            
C 20.13 16.27 17.11                                                             
C 20.13 16.27 39.93                                                             
C 20.13 16.27 62.75                                                             
C 20.13 16.27 85.56                                                             
C 20.13 16.27 108.38                                                            
C 24.16 13.95 17.11                                                             
C 24.16 13.95 39.93                                                             
C 24.16 13.95 62.75                                                             
C 24.16 13.95 85.56                                                             
C 24.16 13.95 108.38                                                            
C 28.18 11.62 17.11                                                             
C 28.18 11.62 39.93                                                             
C 28.18 11.62 62.75                                                             
C 28.18 11.62 85.56                                                             
C 28.18 11.62 108.38                                                            
C 28.18 16.27 17.11                                                             
C 28.18 16.27 39.93                                                             
C 28.18 16.27 62.75                                                             
C 28.18 16.27 85.56                                                             
C 28.18 16.27 108.38                                                            
C  1.34  2.32  5.70                                                             
C  1.34  2.32 28.52                                                             
C  1.34  2.32 51.34                                                             
C  1.34  2.32 74.16                                                             
C  1.34  2.32 96.97                                                             
C  5.37  0.00  5.70                                                             
C  5.37  0.00 28.52                                                             
C  5.37  0.00 51.34                                                             
C  5.37  0.00 74.16                                                             
C  5.37  0.00 96.97                                                             
C  1.34  6.97  5.70                                                             
C  1.34  6.97 28.52                                                             
C  1.34  6.97 51.34                                                             
C  1.34  6.97 74.16                                                             
C  1.34  6.97 96.97                                                             
C  5.37  4.65  5.70                                                             
C  5.37  4.65 28.52                                                             
C  5.37  4.65 51.34                                                             
C  5.37  4.65 74.16                                                             
C  5.37  4.65 96.97                                                             
C  9.39  2.32  5.70                                                             
C  9.39  2.32 28.52                                                             
C  9.39  2.32 51.34                                                             
C  9.39  2.32 74.16                                                             
C  9.39  2.32 96.97                                                             
C 13.42  0.00  5.70                                                             
C 13.42  0.00 28.52                                                             
C 13.42  0.00 51.34                                                             
C 13.42  0.00 74.16                                                             
C 13.42  0.00 96.97                                                             
C  1.34 11.62  5.70                                                             
C  1.34 11.62 28.52                                                             
C  1.34 11.62 51.34                                                             
C  1.34 11.62 74.16                                                             
C  1.34 11.62 96.97                                                             
C  5.37  9.30  5.70                                                             
C  5.37  9.30 28.52                                                             
C  5.37  9.30 51.34                                                             
C  5.37  9.30 74.16                                                             
C  5.37  9.30 96.97                                                             
C  9.39  6.97  5.70                                                             
C  9.39  6.97 28.52                                                             
C  9.39  6.97 51.34                                                             
C  9.39  6.97 74.16                                                             
C  9.39  6.97 96.97                                                             
C 13.42  4.65  5.70                                                             
C 13.42  4.65 28.52                                                             
C 13.42  4.65 51.34                                                             
C 13.42  4.65 74.16                                                             
C 13.42  4.65 96.97                                                             
C 17.45  2.32  5.70                                                             
C 17.45  2.32 28.52                                                             
C 17.45  2.32 51.34                                                             
C 17.45  2.32 74.16                                                             
C 17.45  2.32 96.97                                                             
C 21.47  0.00  5.70                                                             
C 21.47  0.00 28.52                                                             
C 21.47  0.00 51.34                                                             
C 21.47  0.00 74.16                                                             
C 21.47  0.00 96.97                                                             
C  1.34 16.27  5.70                                                             
C  1.34 16.27 28.52                                                             
C  1.34 16.27 51.34                                                             
C  1.34 16.27 74.16                                                             
C  1.34 16.27 96.97                                                             
C  5.37 13.95  5.70                                                             
C  5.37 13.95 28.52                                                             
C  5.37 13.95 51.34                                                             
C  5.37 13.95 74.16                                                             
C  5.37 13.95 96.97                                                             
C  9.39 11.62  5.70                                                             
C  9.39 11.62 28.52                                                             
C  9.39 11.62 51.34                                                             
C  9.39 11.62 74.16                                                             
C  9.39 11.62 96.97                                                             
C 13.42  9.30  5.70                                                             
C 13.42  9.30 28.52                                                             
C 13.42  9.30 51.34                                                             
C 13.42  9.30 74.16                                                             
C 13.42  9.30 96.97                                                             
C 17.45  6.97  5.70                                                             
C 17.45  6.97 28.52                                                             
C 17.45  6.97 51.34                                                             
C 17.45  6.97 74.16                                                             
C 17.45  6.97 96.97                                                             
C 21.47  4.65  5.70                                                             
C 21.47  4.65 28.52                                                             
C 21.47  4.65 51.34                                                             
C 21.47  4.65 74.16                                                             
C 21.47  4.65 96.97                                                             
C 25.50  2.32  5.70                                                             
C 25.50  2.32 28.52                                                             
C 25.50  2.32 51.34                                                             
C 25.50  2.32 74.16                                                             
C 25.50  2.32 96.97                                                             
C 29.52  0.00  5.70                                                             
C 29.52  0.00 28.52                                                             
C 29.52  0.00 51.34                                                             
C 29.52  0.00 74.16                                                             
C 29.52  0.00 96.97                                                             
C  9.39 16.27  5.70                                                             
C  9.39 16.27 28.52                                                             
C  9.39 16.27 51.34                                                             
C  9.39 16.27 74.16                                                             
C  9.39 16.27 96.97                                                             
C 13.42 13.95  5.70                                                             
C 13.42 13.95 28.52                                                             
C 13.42 13.95 51.34                                                             
C 13.42 13.95 74.16                                                             
C 13.42 13.95 96.97                                                             
C 17.45 11.62  5.70                                                             
C 17.45 11.62 28.52                                                             
C 17.45 11.62 51.34                                                             
C 17.45 11.62 74.16                                                             
C 17.45 11.62 96.97                                                             
C 21.47  9.30  5.70                                                             
C 21.47  9.30 28.52                                                             
C 21.47  9.30 51.34                                                             
C 21.47  9.30 74.16                                                             
C 21.47  9.30 96.97                                                             
C 25.50  6.97  5.70                                                             
C 25.50  6.97 28.52                                                             
C 25.50  6.97 51.34                                                             
C 25.50  6.97 74.16                                                             
C 25.50  6.97 96.97                                                             
C 29.52  4.65  5.70                                                             
C 29.52  4.65 28.52                                                             
C 29.52  4.65 51.34                                                             
C 29.52  4.65 74.16                                                             
C 29.52  4.65 96.97                                                             
C 17.45 16.27  5.70                                                             
C 17.45 16.27 28.52                                                             
C 17.45 16.27 51.34                                                             
C 17.45 16.27 74.16                                                             
C 17.45 16.27 96.97                                                             
C 21.47 13.95  5.70                                                             
C 21.47 13.95 28.52                                                             
C 21.47 13.95 51.34                                                             
C 21.47 13.95 74.16                                                             
C 21.47 13.95 96.97                                                             
C 25.50 11.62  5.70                                                             
C 25.50 11.62 28.52                                                             
C 25.50 11.62 51.34                                                             
C 25.50 11.62 74.16                                                             
C 25.50 11.62 96.97                                                             
C 29.52  9.30  5.70                                                             
C 29.52  9.30 28.52                                                             
C 29.52  9.30 51.34                                                             
C 29.52  9.30 74.16                                                             
C 29.52  9.30 96.97                                                             
C 25.50 16.27  5.70                                                             
C 25.50 16.27 28.52                                                             
C 25.50 16.27 51.34                                                             
C 25.50 16.27 74.16                                                             
C 25.50 16.27 96.97                                                             
C 29.52 13.95  5.70                                                             
C 29.52 13.95 28.52                                                             
C 29.52 13.95 51.34                                                             
C 29.52 13.95 74.16                                                             
C 29.52 13.95 96.97                                                             
C  2.68  0.00 17.11                                                             
C  2.68  0.00 39.93                                                             
C  2.68  0.00 62.75                                                             
C  2.68  0.00 85.56                                                             
C  2.68  0.00 108.38                                                            
C  2.68  4.65 17.11                                                             
C  2.68  4.65 39.93                                                             
C  2.68  4.65 62.75                                                             
C  2.68  4.65 85.56                                                             
C  2.68  4.65 108.38                                                            
C  6.71  2.32 17.11                                                             
C  6.71  2.32 39.93                                                             
C  6.71  2.32 62.75                                                             
C  6.71  2.32 85.56                                                             
C  6.71  2.32 108.38                                                            
C 10.74  0.00 17.11                                                             
C 10.74  0.00 39.93                                                             
C 10.74  0.00 62.75                                                             
C 10.74  0.00 85.56                                                             
C 10.74  0.00 108.38                                                            
C  2.68  9.30 17.11                                                             
C  2.68  9.30 39.93                                                             
C  2.68  9.30 62.75                                                             
C  2.68  9.30 85.56                                                             
C  2.68  9.30 108.38                                                            
C  6.71  6.97 17.11                                                             
C  6.71  6.97 39.93                                                             
C  6.71  6.97 62.75                                                             
C  6.71  6.97 85.56                                                             
C  6.71  6.97 108.38                                                            
C 10.74  4.65 17.11                                                             
C 10.74  4.65 39.93                                                             
C 10.74  4.65 62.75                                                             
C 10.74  4.65 85.56                                                             
C 10.74  4.65 108.38                                                            
C 14.76  2.32 17.11                                                             
C 14.76  2.32 39.93                                                             
C 14.76  2.32 62.75                                                             
C 14.76  2.32 85.56                                                             
C 14.76  2.32 108.38                                                            
C 18.79  0.00 17.11                                                             
C 18.79  0.00 39.93                                                             
C 18.79  0.00 62.75                                                             
C 18.79  0.00 85.56                                                             
C 18.79  0.00 108.38                                                            
C  2.68 13.95 17.11                                                             
C  2.68 13.95 39.93                                                             
C  2.68 13.95 62.75                                                             
C  2.68 13.95 85.56                                                             
C  2.68 13.95 108.38                                                            
C  6.71 11.62 17.11                                                             
C  6.71 11.62 39.93                                                             
C  6.71 11.62 62.75                                                             
C  6.71 11.62 85.56                                                             
C  6.71 11.62 108.38                                                            
C 10.74  9.30 17.11                                                             
C 10.74  9.30 39.93                                                             
C 10.74  9.30 62.75                                                             
C 10.74  9.30 85.56                                                             
C 10.74  9.30 108.38                                                            
C 14.76  6.97 17.11                                                             
C 14.76  6.97 39.93                                                             
C 14.76  6.97 62.75                                                             
C 14.76  6.97 85.56                                                             
C 14.76  6.97 108.38                                                            
C 18.79  4.65 17.11                                                             
C 18.79  4.65 39.93                                                             
C 18.79  4.65 62.75                                                             
C 18.79  4.65 85.56                                                             
C 18.79  4.65 108.38                                                            
C 22.81  2.32 17.11                                                             
C 22.81  2.32 39.93                                                             
C 22.81  2.32 62.75                                                             
C 22.81  2.32 85.56                                                             
C 22.81  2.32 108.38                                                            
C 26.84  0.00 17.11                                                             
C 26.84  0.00 39.93                                                             
C 26.84  0.00 62.75                                                             
C 26.84  0.00 85.56                                                             
C 26.84  0.00 108.38                                                            
C  6.71 16.27 17.11                                                             
C  6.71 16.27 39.93                                                             
C  6.71 16.27 62.75                                                             
C  6.71 16.27 85.56                                                             
C  6.71 16.27 108.38                                                            
C 10.74 13.95 17.11                                                             
C 10.74 13.95 39.93                                                             
C 10.74 13.95 62.75                                                             
C 10.74 13.95 85.56                                                             
C 10.74 13.95 108.38                                                            
C 14.76 11.62 17.11                                                             
C 14.76 11.62 39.93                                                             
C 14.76 11.62 62.75                                                             
C 14.76 11.62 85.56                                                             
C 14.76 11.62 108.38                                                            
C 18.79  9.30 17.11                                                             
C 18.79  9.30 39.93                                                             
C 18.79  9.30 62.75                                                             
C 18.79  9.30 85.56                                                             
C 18.79  9.30 108.38                                                            
C 22.81  6.97 17.11                                                             
C 22.81  6.97 39.93                                                             
C 22.81  6.97 62.75                                                             
C 22.81  6.97 85.56                                                             
C 22.81  6.97 108.38                                                            
C 26.84  4.65 17.11                                                             
C 26.84  4.65 39.93                                                             
C 26.84  4.65 62.75                                                             
C 26.84  4.65 85.56                                                             
C 26.84  4.65 108.38                                                            
C 30.86  2.32 17.11                                                             
C 30.86  2.32 39.93                                                             
C 30.86  2.32 62.75                                                             
C 30.86  2.32 85.56                                                             
C 30.86  2.32 108.38                                                            
C 14.76 16.27 17.11                                                             
C 14.76 16.27 39.93                                                             
C 14.76 16.27 62.75                                                             
C 14.76 16.27 85.56                                                             
C 14.76 16.27 108.38                                                            
C 18.79 13.95 17.11                                                             
C 18.79 13.95 39.93                                                             
C 18.79 13.95 62.75                                                             
C 18.79 13.95 85.56                                                             
C 18.79 13.95 108.38                                                            
C 22.81 11.62 17.11                                                             
C 22.81 11.62 39.93                                                             
C 22.81 11.62 62.75                                                             
C 22.81 11.62 85.56                                                             
C 22.81 11.62 108.38                                                            
C 26.84  9.30 17.11                                                             
C 26.84  9.30 39.93                                                             
C 26.84  9.30 62.75                                                             
C 26.84  9.30 85.56                                                             
C 26.84  9.30 108.38                                                            
C 30.86  6.97 17.11                                                             
C 30.86  6.97 39.93                                                             
C 30.86  6.97 62.75                                                             
C 30.86  6.97 85.56                                                             
C 30.86  6.97 108.38                                                            
C 22.81 16.27 17.11                                                             
C 22.81 16.27 39.93                                                             
C 22.81 16.27 62.75                                                             
C 22.81 16.27 85.56                                                             
C 22.81 16.27 108.38                                                            
C 26.84 13.95 17.11                                                             
C 26.84 13.95 39.93                                                             
C 26.84 13.95 62.75                                                             
C 26.84 13.95 85.56                                                             
C 26.84 13.95 108.38                                                            
C 30.86 11.62 17.11                                                             
C 30.86 11.62 39.93                                                             
C 30.86 11.62 62.75                                                             
C 30.86 11.62 85.56                                                             
C 30.86 11.62 108.38                                                            
C 30.86 16.27 17.11                                                             
C 30.86 16.27 39.93                                                             
C 30.86 16.27 62.75                                                             
C 30.86 16.27 85.56                                                             
C 30.86 16.27 108.38                                                            
%ENDBLOCK POSITIONS_ABS                                                         

--------------------------------------------------------------------------------
-------------------------------- END INPUT FILE --------------------------------
--------------------------------------------------------------------------------


 
<<<<<<<<<<<<<<<<<<<<<<<<<<<<<<<<< Full system >>>>>>>>>>>>>>>>>>>>>>>>>>>>>>>>>>
<<<<<<<<<<<<<<<<<<<<<<<<<<< PAW Dataset information >>>>>>>>>>>>>>>>>>>>>>>>>>>
File: ~/pp/paw/c_pbe_abinit.paw; rc = 1.25 bohr; shape type =  3; rshape = 1.25 bohr;
  Atomic number:  6;  ionic charge:  4.000000
    Partial Wave 1: l = 0
    Partial Wave 2: l = 0
    Partial Wave 3: l = 1
    Partial Wave 4: l = 1
  Core charge supplied for Nonlinear Core Corrections
<<<<<<<<<<<<<<<<<<<<<<<<<<<<<<<<<<<<<<< >>>>>>>>>>>>>>>>>>>>>>>>>>>>>>>>>>>>>>>

-------------------------- Atom counting information ---------------------------
Symbol    Natoms    Nngwfs    Nprojs
  C        640      2560      5120
.......   ......    ......    ......
Totals:    640      2560      5120
--------------------------------------------------------------------------------

=============================== PSINC grid sizes ===============================
                      Simulation cell:   63 x  35 x 225
                              FFT-box:   63 x  35 x 117
                                  PPD:    7 x   5 x   1
Grid space d1=  0.511269841270a0 (KE cutoff=  29.06054Eh = 790.77748eV)
Grid space d2=  0.531142857143a0 (KE cutoff=  26.92659Eh = 732.70972eV)
Grid space d3=  0.507066666667a0 (KE cutoff=  29.54431Eh = 803.94163eV)
================================================================================
  
WARNING in cell_grid_distribute:
Average of less than one 23-slab per node, so workload cannot be
equally balanced between nodes.

********************* Fourier parallelisation information **********************
       Coarse grid (whole simulation cell) dimensions:     63    35   225
          Real-space ('12') slabs/node (min max mean):      5     6     5
         Recip-space ('23') slabs/node (min max mean):      0     1     0
********************************************************************************

********************* Fourier parallelisation information **********************
       Double grid (whole simulation cell) dimensions:    126    70   450
          Real-space ('12') slabs/node (min max mean):     11    12    11
         Recip-space ('23') slabs/node (min max mean):      1     2     1
********************************************************************************

Atom SCF Calculation for C  : Z (AE atom) =   6 : Z (PS atom) =   4
Config String: 2s2 2p2
Orbitals (num,occ):  2     2.00 2.00
Orbitals   (num,l):  2        0    1
Real-space Grid (nr,dr,rmax): 1293    0.0069659443    9.0000000000
Spherical Bessel Basis (nsws,lmax,cutoff):   37    2  161.4736382572
Confining potential (l,width,scale):  0    3.0000000000  100.0000000000
Confining potential (l,width,scale):  1    3.0000000000  100.0000000000
  1         -5.4691149987   -1.3647045835    4.5135257941   -1.6713568800
  2         -5.5214542834   -1.4154291535    4.4635199061   -1.6585170582
  3         -5.5221055910   -1.4439161209    4.4342087028   -1.6520281659
  4         -5.5287901521   -1.4522301802    4.4259176063   -1.6507873939
  5         -5.5308251003   -1.4557840400    4.4224142384   -1.6502632738
  6         -5.5317252094   -1.4571386008    4.4211068249   -1.6500892907
  7         -5.5320765973   -1.4576738924    4.4205997642   -1.6500256779
  8         -5.5322192721   -1.4578833190    4.4204056023   -1.6500032912
  9         -5.5322765240   -1.4579657561    4.4203308649   -1.6499954152
 10         -5.5322995843   -1.4579982639    4.4203020904   -1.6499927055
 11         -5.5323088576   -1.4580111317    4.4202909828   -1.6499917962
 12         -5.5323125859   -1.4580162439    4.4202866844   -1.6499915030
 13         -5.5323140836   -1.4580182832    4.4202850159   -1.6499914143
 14         -5.5323146847   -1.4580191002    4.4202843659   -1.6499913905
 15         -5.5323149258   -1.4580194290    4.4202841117   -1.6499913858
 16         -5.5323150224   -1.4580195619    4.4202840119   -1.6499913859
Atom SCF converged after  16 iterations to a total energy of     -5.53231502

Determining parallel strategy ...
... using space-filling curve
... NGWF load balancing: max     64;  min     64;  average     64
... Projector load balancing: max    128;  min    128;  average    128
... done
Calculating Ewald energy ...
              Ewald: real-space energy =   10198.412740
        Ewald: reciprocal-space energy =      36.875900
         Ewald: (sum_charge)**2 Energy =    9301.451204
         Ewald: (sum_charge**2) Energy =     735.344284
                          Ewald Energy =     198.493152
Basis initialisation ...... NGWF spheres initialised
... Projector spheres initialised
... NGWF tight boxes initialised
... Projector tight boxes initialised
... Tight-boxes gathered
... NGWF basis size (local,global):     692372  27887488
... PAW projector initialisation
... done

============================= Charge Augmentation ==============================
                           Aug box size:   11 x  11 x  11
================================================================================

========================== Sparse matrix information ===========================
                        Overlap matrix filling:  24.84%
                        Density kernel filling: 100.00%
              NGWF-Proj overlap matrix filling:   5.47%
                    Aug Overlap matrix filling:  25.00%
                    Hamiltonian matrix filling:  25.00%
                  NGWF diagonal matrix filling:   0.16%
                             KS matrix filling: 100.00% 
                           KSKS matrix filling: 100.00% 
================================================================================

Sparse matrix initialisation ... done
NGWF initialisation ...... done
============ Calculation of NGWF S^-1 using Hotelling algorithm ================ 
         Iteration  |  Frobenius norm and Maximum abs value    (of I-S*S_n^-1)   
               1       0.48705872E+02     0.97104247E+00
               2       0.47261588E+02     0.94419130E+00
               3       0.45190918E+02     0.89595869E+00
               4       0.42610035E+02     0.81675344E+00
               5       0.39568880E+02     0.71392259E+00
               6       0.36142228E+02     0.66185119E+00
               7       0.32704822E+02     0.61715914E+00
               8       0.29353887E+02     0.57754426E+00
               9       0.25506676E+02     0.52685285E+00
              10       0.20504930E+02     0.44426874E+00
              11       0.14164514E+02     0.31949957E+00
              12       0.74589142E+01     0.17079444E+00
              13       0.24162958E+01     0.53138766E-01
              14       0.30217276E+00     0.60348977E-02
              15       0.55723027E-02     0.95963034E-04
              16       0.25079932E-05     0.31359583E-07
              17       0.78532086E-12     0.85487173E-14
================================================================================
Calculating core density ...
================================= Core Density =================================
               Core den box size:   21 x  21 x  21
================================================================================
 ... done
Up spin density kernel initialisation ...... done

Writing density kernel to file "6.03712_GO_manual_4x64graphite.dkn" ... done

>>> Optimising kernel for current NGWFs:

--------------------------- Ensemble-DFT optimisation --------------------------
Running ScaLAPACK on   40 processor(s).

--------------------------------------------------------------------------------
  Iter                              Commutator    Free_energy(A=E-TS)     DeltaA
#    0                          0.000052034754   -3677.07803622232086  -3.68E+03

Step                       =       0.381966011250
Energy                     =   -3677.078005262653
Entropy (-TS)              =      -0.000030959669
Free energy (A=E-TS)       =   -3677.078036222321
Est. 0K Energy 0.5*(E+A)   =   -3677.078020742487
Residual Non-orthogonality =       0.000000000000
Residual N_electrons       =       0.000000000001

Spin          Integrated_Ne            Fermi_level     Delta_Fermi_level
   1      2560.000000000093        -0.013606266936             -1.36E-02

                           Spin 1          
     Orb      H-eigenvalues     Occupancies
       1 |    -0.7259984268    1.0000000000 | 
                          ------
    1276 |    -0.0496772950    0.9999886959 | 
    1277 |    -0.0496754839    0.9999886894 | 
    1278 |    -0.0496740154    0.9999886841 | 
    1279 |    -0.0496694206    0.9999886677 | 
    1280 |    -0.0496661275    0.9999886559 | 
                 - Gap at zero temperature -
    1281 |     0.0225818628    0.0000108938 | 
    1282 |     0.0225828088    0.0000108905 | 
    1283 |     0.0225832079    0.0000108891 | 
    1284 |     0.0225895008    0.0000108675 | 
    1285 |     0.0225917864    0.0000108597 | 
                          ------
    2560 |     0.8056282897    0.0000000000 | 

                       |  Abs_value |  Threshold | Converged
     Delta_Free_energy |   3.68E+03 |   1.00E-06 |        No
     Delta_Energy      |   3.68E+03 |   1.00E-04 |        No
     Delta_Entropy     |   3.10E-05 |   1.00E-04 |       Yes
     Commutator        |   5.20E-05 |   1.00E-05 |        No
     Delta_Fermi_level |   1.36E-02 |   1.00E-03 |        No

  Line search of the free energy minimum:
  Step_type        Step             Free_energy   Predicted_free_energy
.   Initial    0.000000    -3677.07803622232086
.    Trial1    0.381966    -3677.08105439848487
.    Trial2    0.618034    -3677.08202782752551
. Quadratic    0.837262    -3677.08232647897012    -3677.08232163431558

--------------------------------------------------------------------------------
  Iter                              Commutator    Free_energy(A=E-TS)     DeltaA
#    1                          0.000020205271   -3677.08232647897012  -4.29E-03

Step                       =       0.837261972867
Energy                     =   -3677.082295444299
Entropy (-TS)              =      -0.000031034672
Free energy (A=E-TS)       =   -3677.082326478970
Est. 0K Energy 0.5*(E+A)   =   -3677.082310961635
Residual Non-orthogonality =       0.000000000000
Residual N_electrons       =       0.000000000001

Spin          Integrated_Ne            Fermi_level     Delta_Fermi_level
   1      2560.000000000044        -0.024687522025             -1.11E-02

                           Spin 1          
     Orb      H-eigenvalues     Occupancies
       1 |    -0.7413822261    1.0000000000 | 
                          ------
    1276 |    -0.0608414066    0.9999889878 | 
    1277 |    -0.0608402309    0.9999889837 | 
    1278 |    -0.0608392368    0.9999889802 | 
    1279 |    -0.0608381893    0.9999889766 | 
    1280 |    -0.0608369056    0.9999889721 | 
                 - Gap at zero temperature -
    1281 |     0.0113977270    0.0000112535 | 
    1282 |     0.0113985022    0.0000112507 | 
    1283 |     0.0114001874    0.0000112448 | 
    1284 |     0.0114008770    0.0000112423 | 
    1285 |     0.0114019123    0.0000112386 | 
                          ------
    2560 |     0.7898825721    0.0000000000 | 

                       |  Abs_value |  Threshold | Converged
     Delta_Free_energy |   4.29E-03 |   1.00E-06 |        No
     Delta_Energy      |   4.29E-03 |   1.00E-04 |        No
     Delta_Entropy     |   7.50E-08 |   1.00E-04 |       Yes
     Commutator        |   2.02E-05 |   1.00E-05 |        No
     Delta_Fermi_level |   1.11E-02 |   1.00E-03 |        No

  Line search of the free energy minimum:
  Step_type        Step             Free_energy   Predicted_free_energy
.   Initial    0.000000    -3677.08232647897012
.    Trial1    0.837262    -3677.08105462504182
.    Trial2    0.319806    -3677.08276324244343
. Quadratic    0.282390    -3677.08277108206858    -3677.08277104684430

--------------------------------------------------------------------------------
  Iter                              Commutator    Free_energy(A=E-TS)     DeltaA
#    2                          0.000007107576   -3677.08277108206858  -4.45E-04

Step                       =       0.282390216366
Energy                     =   -3677.082740067141
Entropy (-TS)              =      -0.000031014917
Free energy (A=E-TS)       =   -3677.082771082069
Est. 0K Energy 0.5*(E+A)   =   -3677.082755574605
Residual Non-orthogonality =       0.000000000000
Residual N_electrons       =      -0.000000000010

Spin          Integrated_Ne            Fermi_level     Delta_Fermi_level
   1      2559.999999999603        -0.025263343633             -5.76E-04

                           Spin 1          
     Orb      H-eigenvalues     Occupancies
       1 |    -0.7422030741    1.0000000000 | 
                          ------
    1276 |    -0.0613723851    0.9999888307 | 
    1277 |    -0.0613711561    0.9999888264 | 
    1278 |    -0.0613699881    0.9999888223 | 
    1279 |    -0.0613694840    0.9999888205 | 
    1280 |    -0.0613681783    0.9999888159 | 
                 - Gap at zero temperature -
    1281 |     0.0108699523    0.0000110840 | 
    1282 |     0.0108712812    0.0000110794 | 
    1283 |     0.0108727638    0.0000110742 | 
    1284 |     0.0108730907    0.0000110731 | 
    1285 |     0.0108741621    0.0000110693 | 
                          ------
    2560 |     0.7890468485    0.0000000000 | 

                       |  Abs_value |  Threshold | Converged
     Delta_Free_energy |   4.45E-04 |   1.00E-06 |        No
     Delta_Energy      |   4.45E-04 |   1.00E-04 |        No
     Delta_Entropy     |   1.98E-08 |   1.00E-04 |       Yes
     Commutator        |   7.11E-06 |   1.00E-05 |       Yes
     Delta_Fermi_level |   5.76E-04 |   1.00E-03 |       Yes

  Line search of the free energy minimum:
  Step_type        Step             Free_energy   Predicted_free_energy
.   Initial    0.000000    -3677.08277108206858
.    Trial1    0.282390    -3677.08281942481017
.    Trial2    0.556493    -3677.08282110140681
. Quadratic    0.429752    -3677.08282586418864    -3677.08282586632959

--------------------------------------------------------------------------------
  Iter                              Commutator    Free_energy(A=E-TS)     DeltaA
#    3                          0.000004091393   -3677.08282586418864  -5.48E-05

Step                       =       0.429751635177
Energy                     =   -3677.082794876183
Entropy (-TS)              =      -0.000030987958
Free energy (A=E-TS)       =   -3677.082825864189
Est. 0K Energy 0.5*(E+A)   =   -3677.082810370186
Residual Non-orthogonality =       0.000000000000
Residual N_electrons       =      -0.000000000048

Spin          Integrated_Ne            Fermi_level     Delta_Fermi_level
   1      2559.999999998137        -0.025894073545             -6.31E-04

                           Spin 1          
     Orb      H-eigenvalues     Occupancies
       1 |    -0.7430894542    1.0000000000 | 
                          ------
    1276 |    -0.0619929815    0.9999887949 | 
    1277 |    -0.0619911808    0.9999887886 | 
    1278 |    -0.0619902571    0.9999887853 | 
    1279 |    -0.0619898454    0.9999887838 | 
    1280 |    -0.0619886293    0.9999887795 | 
                 - Gap at zero temperature -
    1281 |     0.0102551397    0.0000110285 | 
    1282 |     0.0102573036    0.0000110209 | 
    1283 |     0.0102580924    0.0000110182 | 
    1284 |     0.0102588394    0.0000110156 | 
    1285 |     0.0102596889    0.0000110126 | 
                          ------
    2560 |     0.7881566405    0.0000000000 | 

                       |  Abs_value |  Threshold | Converged
     Delta_Free_energy |   5.48E-05 |   1.00E-06 |        No
     Delta_Energy      |   5.48E-05 |   1.00E-04 |       Yes
     Delta_Entropy     |   2.70E-08 |   1.00E-04 |       Yes
     Commutator        |   4.09E-06 |   1.00E-05 |       Yes
     Delta_Fermi_level |   6.31E-04 |   1.00E-03 |       Yes

  Line search of the free energy minimum:
  Step_type        Step             Free_energy   Predicted_free_energy
.   Initial    0.000000    -3677.08282586418864
.    Trial1    0.429752    -3677.08284259504171
.    Trial2    0.647567    -3677.08283077872193
. Quadratic    0.350155    -3677.08284350733493    -3677.08284350670647

--------------------------------------------------------------------------------
  Iter                              Commutator    Free_energy(A=E-TS)     DeltaA
#    4                          0.000002471325   -3677.08284350733493  -1.76E-05

Step                       =       0.350154557531
Energy                     =   -3677.082812533707
Entropy (-TS)              =      -0.000030973610
Free energy (A=E-TS)       =   -3677.082843507335
Est. 0K Energy 0.5*(E+A)   =   -3677.082828020521
Residual Non-orthogonality =       0.000000000000
Residual N_electrons       =      -0.000000000019

Spin          Integrated_Ne            Fermi_level     Delta_Fermi_level
   1      2559.999999999290        -0.026185435547             -2.91E-04

                           Spin 1          
     Orb      H-eigenvalues     Occupancies
       1 |    -0.7435012455    1.0000000000 | 
[...]
 C   275 -- C   555       -0.10      5.37000
 C   274 -- C   554       -0.10      5.37000
 C   273 -- C   553       -0.10      5.37000
 C   272 -- C   552       -0.10      5.37000
 C   271 -- C   551       -0.10      5.37000
 C   270 -- C   550       -0.10      5.37000
 C   269 -- C   549       -0.10      5.37000
 C   268 -- C   548       -0.10      5.37000
 C   267 -- C   547       -0.10      5.37000
 C   266 -- C   546       -0.10      5.37000
 C   130 -- C   465       -0.09      5.37000
 C   129 -- C   464       -0.09      5.37000
 C   128 -- C   463       -0.09      5.37000
 C   127 -- C   462       -0.09      5.37000
 C   126 -- C   461       -0.09      5.37000
 C   240 -- C   525       -0.10      5.37000
 C   239 -- C   524       -0.10      5.37000
 C   238 -- C   523       -0.10      5.37000
 C   237 -- C   522       -0.10      5.37000
 C   236 -- C   521       -0.10      5.37000
 C    23 -- C   478       -0.09      5.37202
 C    49 -- C   469       -0.09      5.37202
 C    48 -- C   468       -0.09      5.37202
 C    47 -- C   467       -0.09      5.37202
 C    22 -- C   477       -0.09      5.37202
 C    46 -- C   466       -0.09      5.37202
 C    21 -- C   476       -0.09      5.37202
 C    25 -- C   480       -0.09      5.37202
 C    24 -- C   479       -0.09      5.37202
 C    50 -- C   470       -0.09      5.37202
 C    24 -- C   449       -0.09      5.37202
 C     6 -- C   416       -0.09      5.37202
 C    23 -- C   448       -0.09      5.37202
 C    22 -- C   447       -0.09      5.37202
 C    10 -- C   470       -0.09      5.37202
 C     5 -- C   450       -0.09      5.37202
 C    21 -- C   446       -0.09      5.37202
 C    10 -- C   420       -0.09      5.37202
 C     9 -- C   469       -0.09      5.37202
 C     9 -- C   419       -0.09      5.37202
 C     8 -- C   468       -0.09      5.37202
 C     4 -- C   449       -0.09      5.37202
 C     8 -- C   418       -0.09      5.37202
 C     2 -- C   447       -0.09      5.37202
 C     7 -- C   467       -0.09      5.37202
 C     7 -- C   417       -0.09      5.37202
 C     1 -- C   446       -0.09      5.37202
 C     6 -- C   466       -0.09      5.37202
 C    25 -- C   450       -0.09      5.37202
 C     3 -- C   448       -0.09      5.37202
 C   285 -- C   580       -0.09      5.37202
 C   284 -- C   579       -0.09      5.37202
 C   283 -- C   578       -0.09      5.37202
 C   282 -- C   577       -0.09      5.37202
 C   281 -- C   576       -0.09      5.37202
 C   260 -- C   605       -0.09      5.37202
 C   259 -- C   604       -0.09      5.37202
 C   258 -- C   603       -0.09      5.37202
 C   257 -- C   602       -0.09      5.37202
 C   256 -- C   601       -0.09      5.37202
 C   219 -- C   569       -0.09      5.37202
 C   218 -- C   568       -0.09      5.37202
 C   217 -- C   567       -0.09      5.37202
 C   216 -- C   566       -0.09      5.37202
 C    11 -- C   331       -0.09      5.37202
 C   205 -- C   550       -0.09      5.37202
 C   204 -- C   549       -0.09      5.37202
 C   203 -- C   548       -0.09      5.37202
 C   202 -- C   547       -0.09      5.37202
 C   201 -- C   546       -0.09      5.37202
 C    15 -- C   335       -0.09      5.37202
 C    30 -- C   355       -0.09      5.37202
 C    30 -- C   325       -0.09      5.37202
 C    14 -- C   334       -0.09      5.37202
 C    29 -- C   354       -0.09      5.37202
 C    29 -- C   324       -0.09      5.37202
 C   260 -- C   550       -0.09      5.37202
 C   259 -- C   549       -0.09      5.37202
 C    28 -- C   353       -0.09      5.37202
 C   258 -- C   548       -0.09      5.37202
 C   257 -- C   547       -0.09      5.37202
 C   256 -- C   546       -0.09      5.37202
 C    28 -- C   323       -0.09      5.37202
 C    27 -- C   352       -0.09      5.37202
 C    13 -- C   333       -0.09      5.37202
 C   250 -- C   540       -0.09      5.37202
 C   249 -- C   539       -0.09      5.37202
 C   248 -- C   538       -0.09      5.37202
 C   247 -- C   537       -0.09      5.37202
 C   246 -- C   536       -0.09      5.37202
 C    27 -- C   322       -0.09      5.37202
 C    26 -- C   351       -0.09      5.37202
 C    55 -- C   335       -0.09      5.37202
 C    26 -- C   321       -0.09      5.37202
 C    54 -- C   334       -0.09      5.37202
 C    12 -- C   332       -0.09      5.37202
 C    53 -- C   333       -0.09      5.37202
 C   230 -- C   580       -0.09      5.37202
 C   230 -- C   525       -0.09      5.37202
 C   229 -- C   579       -0.09      5.37202
 C   229 -- C   524       -0.09      5.37202
 C   228 -- C   578       -0.09      5.37202
 C    52 -- C   332       -0.09      5.37202
 C   228 -- C   523       -0.09      5.37202
 C   227 -- C   577       -0.09      5.37202
 C   227 -- C   522       -0.09      5.37202
 C   226 -- C   576       -0.09      5.37202
 C   226 -- C   521       -0.09      5.37202
 C    51 -- C   331       -0.09      5.37202
 C   220 -- C   570       -0.09      5.37202
 C   220 -- C   515       -0.09      5.37202
 C   219 -- C   514       -0.09      5.37202
 C   218 -- C   513       -0.09      5.37202
 C   217 -- C   512       -0.09      5.37202
 C   216 -- C   511       -0.09      5.37202
 C    95 -- C   425       -0.09      5.37202
 C    95 -- C   365       -0.09      5.37202
 C    94 -- C   424       -0.09      5.37202
 C    94 -- C   364       -0.09      5.37202
 C    93 -- C   423       -0.09      5.37202
 C   195 -- C   540       -0.09      5.37202
 C   195 -- C   500       -0.09      5.37202
 C    93 -- C   363       -0.09      5.37202
 C   194 -- C   539       -0.09      5.37202
 C    92 -- C   422       -0.09      5.37202
 C   194 -- C   499       -0.09      5.37202
 C   193 -- C   538       -0.09      5.37202
 C   193 -- C   498       -0.09      5.37202
 C    92 -- C   362       -0.09      5.37202
 C   192 -- C   537       -0.09      5.37202
 C    91 -- C   421       -0.09      5.37202
 C   192 -- C   497       -0.09      5.37202
 C   191 -- C   536       -0.09      5.37202
 C   191 -- C   496       -0.09      5.37202
 C    91 -- C   361       -0.09      5.37202
 C    85 -- C   355       -0.09      5.37202
 C   180 -- C   515       -0.09      5.37202
 C    40 -- C   365       -0.09      5.37202
 C    84 -- C   354       -0.09      5.37202
 C   179 -- C   514       -0.09      5.37202
 C    83 -- C   353       -0.09      5.37202
 C   178 -- C   513       -0.09      5.37202
 C   177 -- C   512       -0.09      5.37202
 C    82 -- C   352       -0.09      5.37202
 C    39 -- C   364       -0.09      5.37202
 C   176 -- C   511       -0.09      5.37202
 C    81 -- C   351       -0.09      5.37202
 C    38 -- C   363       -0.09      5.37202
 C    37 -- C   362       -0.09      5.37202
 C    36 -- C   361       -0.09      5.37202
 C    65 -- C   395       -0.09      5.37202
 C    65 -- C   345       -0.09      5.37202
 C    64 -- C   394       -0.09      5.37202
 C    64 -- C   344       -0.09      5.37202
 C    63 -- C   393       -0.09      5.37202
 C    63 -- C   343       -0.09      5.37202
 C    62 -- C   392       -0.09      5.37202
 C    62 -- C   342       -0.09      5.37202
 C    61 -- C   391       -0.09      5.37202
 C    61 -- C   341       -0.09      5.37202
 C   120 -- C   395       -0.09      5.37202
 C    55 -- C   385       -0.09      5.37202
 C   119 -- C   394       -0.09      5.37202
 C   118 -- C   393       -0.09      5.37202
 C   117 -- C   392       -0.09      5.37202
 C    54 -- C   384       -0.09      5.37202
 C   116 -- C   391       -0.09      5.37202
 C    53 -- C   383       -0.09      5.37202
 C    52 -- C   382       -0.09      5.37202
 C    51 -- C   381       -0.09      5.37202
 C   150 -- C   440       -0.09      5.37202
 C   149 -- C   439       -0.09      5.37202
 C   148 -- C   438       -0.09      5.37202
 C   147 -- C   437       -0.09      5.37202
 C   146 -- C   436       -0.09      5.37202
 C   135 -- C   460       -0.09      5.37202
 C   134 -- C   459       -0.09      5.37202
 C   133 -- C   458       -0.09      5.37202
 C   132 -- C   457       -0.09      5.37202
 C   131 -- C   456       -0.09      5.37202
 C   106 -- C   436       -0.09      5.37202
 C   106 -- C   376       -0.09      5.37202
 C    80 -- C   410       -0.09      5.37202
 C    79 -- C   409       -0.09      5.37202
 C    78 -- C   408       -0.09      5.37202
 C    77 -- C   407       -0.09      5.37202
 C    76 -- C   406       -0.09      5.37202
 C   135 -- C   410       -0.09      5.37202
 C   134 -- C   409       -0.09      5.37202
 C   133 -- C   408       -0.09      5.37202
 C   132 -- C   407       -0.09      5.37202
 C   131 -- C   406       -0.09      5.37202
 C   110 -- C   440       -0.09      5.37202
 C   110 -- C   380       -0.09      5.37202
 C   109 -- C   439       -0.09      5.37202
 C   109 -- C   379       -0.09      5.37202
 C   108 -- C   438       -0.09      5.37202
 C   108 -- C   378       -0.09      5.37202
 C   107 -- C   437       -0.09      5.37202
 C   107 -- C   377       -0.09      5.37202
 C   215 -- C   635       -0.09      5.38000
 C   214 -- C   634       -0.09      5.38000
 C   213 -- C   633       -0.09      5.38000
 C   212 -- C   632       -0.09      5.38000
 C   211 -- C   631       -0.09      5.38000
 C   190 -- C   620       -0.09      5.38000
 C   189 -- C   619       -0.09      5.38000
 C   188 -- C   618       -0.09      5.38000
 C   187 -- C   617       -0.09      5.38000
 C   186 -- C   616       -0.09      5.38000
 C   175 -- C   595       -0.09      5.38000
 C   174 -- C   594       -0.09      5.38000
 C   173 -- C   593       -0.09      5.38000
 C   172 -- C   592       -0.09      5.38000
 C   171 -- C   591       -0.09      5.38000
 C   245 -- C   640       -0.09      5.38000
 C   244 -- C   639       -0.09      5.38000
 C   243 -- C   638       -0.09      5.38000
 C   242 -- C   637       -0.09      5.38000
 C   241 -- C   636       -0.09      5.38000
==================================================


=================== Orbital energy and occupancy information ===================

      Total number of orbitals:    2560
        Occupancy sum (kernel):    1280.000000000
   Occupancy sum (eigenvalues):    1280.000000000
                 HOMO-LUMO gap:       0.072027475 Eh
                 Mid-gap level:       0.070953240 Eh

                        Orbital | Energy (Eh) | Occupancy
                            1    -0.642721564   1.0000000
                        .......   ...........   .........
                         1271     0.034510969   0.9999898
                         1272     0.034525713   0.9999898
                         1273     0.034528021   0.9999898
                         1274     0.034547613   0.9999897
                         1275     0.034555179   0.9999897
                         1276     0.034895693   0.9999885
                         1277     0.034902844   0.9999885
                         1278     0.034922695   0.9999884
                         1279     0.034924299   0.9999884
                         1280     0.034939502   0.9999884
                        ....... -- gap at 0K -- .........
                         1281     0.106966977   0.0000114
                         1282     0.106969440   0.0000114
                         1283     0.106972683   0.0000113
                         1284     0.106978623   0.0000113
                         1285     0.106981588   0.0000113
                         1286     0.107224837   0.0000105
                         1287     0.107227278   0.0000105
                         1288     0.107230510   0.0000105
                         1289     0.107236442   0.0000104
                         1290     0.107239407   0.0000104
                        .......   ...........   .........
                         2560     0.952901264   0.0000000

================================================================================

===================== Writing canonical molecular orbitals =====================
| Orbital  Energy (eV)  Norm     |
| HOMO      0.95075223  1.000000 | Writing "6.03712_GO_manual_4x64graphite_HOMO.cube" ... done
Writing "6.03712_GO_manual_4x64graphite_HOMO.dx" ... done
| LUMO      2.91071956  1.000000 | Writing "6.03712_GO_manual_4x64graphite_LUMO.cube" ... done
Writing "6.03712_GO_manual_4x64graphite_LUMO.dx" ... done
================================================================================
 
===================== Density of States (DOS) calculation ======================
Writing "6.03712_GO_manual_4x64graphite_DOS.txt" ...  done
================================================================================
 
Writing bands to file "6.03712_GO_manual_4x64graphite.val_bands" ... done
 
================ Projected Density of States (pDOS) calculation ================
 
Constructing AM resolved functions  ...... done
Writing NGWF plot files in formats: CUBE DX ...  done
 
Performing overlap integrals ...  done
 
Computing pDOS weights ...  done
 
All bands spilling parameter =   2.60 %
Occupancy-weighted spilling parameter =   1.03 %
 
 => Outputting data for OptaDOS <=
 
Writing pDOS weights to file "6.03712_GO_manual_4x64graphite.val_pdos_bin" ... done
 
Writing band gradients to file "6.03712_GO_manual_4x64graphite.val_dome_bin" ... done
 
Writing Castep output cell file to "6.03712_GO_manual_4x64graphite-out.cell" ... done
 
 => Computing Gaussian smeared pDOS <= 
Writing "6.03712_GO_manual_4x64graphite_PDOS.txt" ...  done
 
 => Computing Occupancy-weighted Gaussian smeared pDOS <= 
Writing "6.03712_GO_manual_4x64graphite_occ_PDOS.txt" ...  done
  => Band centres: 
 S band centre of group 1:  -13.670041 eV
 P band centre of group 1:   -6.550496 eV
  Band centres done. <=
  => Integrated number of electrons in each AM band: 
 S num electrons of group 1:  574.333401
 P num electrons of group 1: 1959.208056
  Integrated number of electrons done. <=
================================================================================

------------------------------ TIMING INFORMATION ------------------------------
AVERAGE TIME:    2135.586s on     40 node(s)                                    
TOTAL TIME:      2135.590s on     40 node(s)                                    
================= AVERAGE TIMINGS FROM ALL NODES (CUMULATIVE) ==================
|| TAG                                    #calls    cpu time   %total  Gflops ||
|| work_imbalance                       :     1        0.00s   0.000%  ------ ||
|| paw_tcore_hartree_on_grid            :     1        0.01s   0.000%  ------ ||
|| paw_sphere_density_on_grid           :     1        0.01s   0.001%  ------ ||
|| sparse_set_to_garbage                :   123        0.02s   0.001%  ------ ||
|| paw_tcore_density                    :     1        0.02s   0.001%  ------ ||
|| paw_dij_hartree                      :   253        0.03s   0.001%  ------ ||
|| basis_extract_function_from_box      :  1408        0.06s   0.003%  ------ ||
|| pseudo_make_structure_factor         :     1        0.09s   0.004%  ------ ||
|| paw_species_calc_proj_prec_mat       :     1        0.12s   0.006%  ------ ||
|| density_init_guess_real              :     1        0.18s   0.008%  ------ ||
|| paw_dataset_init                     :     1        0.22s   0.010%  ------ ||
|| ngwfs_initialise_from_radial         :     2        0.66s   0.031%  ------ ||
|| restart_kernel_write                 :    12        0.70s   0.033%  ------ ||
|| sparse_init                          :     1        0.72s   0.034%  ------ ||
|| dense_normal_eigensolve              :     1        1.08s   0.051%  ------ ||
|| hartree_on_grid                      :   192        1.79s   0.084%  ------ ||
|| projectors_init_fftbox_recip         :   111        2.25s   0.105%  ------ ||
|| fourier_apply_box_pair               :  2080        3.46s   0.162% 557.115 ||
|| basis_copy_function_to_box           : 18176        3.82s   0.179%  ------ ||
|| augmentation_screen_dij              :   197        4.33s   0.203%  ------ ||
|| sparse_embed_hotelling_invert_embed  :    21        6.27s   0.293%  ------ ||
|| sw_init                              :     1        6.68s   0.313%  ------ ||
|| sparse_trace                         :  2292        6.69s   0.313%  ------ ||
|| ngwf_gradient_coeffs                 :    11        6.79s   0.318%  ------ ||
|| ewald_calculate_energy               :     1        8.06s   0.378%  ------ ||
|| cell_grid_deposit_box_real           : 24752       16.03s   0.750%  ------ ||
|| paw_dij_xc                           :   253       17.25s   0.808%  ------ ||
|| cell_grid_extract_box_real           :  7644       17.85s   0.836%  ------ ||
|| fourier_apply_cell_forward           :  5540       19.01s   0.890%  64.073 ||
|| fourier_apply_cell_backward          :  5923       19.41s   0.909%  67.096 ||
|| aug_nonlocal_mat                     :   242       22.03s   1.032%  ------ ||
|| projectors_func_ovlp_box             :    22       25.47s   1.193%  ------ ||
|| function_ops_brappd_ketppd           :    44       25.87s   1.211%  ------ ||
|| augmentation_density_on_grid         :   192       30.21s   1.414%  ------ ||
|| density_fftbox_deposit_to_cell       : 12288       32.70s   1.531%  ------ ||
|| hamiltonian_energy_components        :     3       35.94s   1.683%  ------ ||
|| integrals_kinetic                    :    21       43.62s   2.042%  ------ ||
|| eigenstates_pdos                     :     1       46.27s   2.167%  ------ ||
|| eigenstates_calculate                :     1       51.14s   2.395%  ------ ||
|| xc_energy_potential                  :   191       76.29s   3.572%  ------ ||
|| nlxc_vdw_energy                      :   382       81.90s   3.835%  ------ ||
|| dense_eigensolve                     :   167       81.90s   3.835%  ------ ||
|| sparse_product                       :  2327       82.33s   3.855%  ------ ||
|| basis_dot_function_with_box          : 3.224M      86.73s   4.061%  ------ ||
|| projectors_gradient_batch            :    44       89.60s   4.196%  ------ ||
|| potential_apply_to_ngwf_batch        :   236       90.77s   4.250%  ------ ||
|| properties_calculate                 :     1      102.43s   4.796%  ------ ||
|| restart_ngwfs_tightbox_output        :    10      116.86s   5.472%  ------ ||
|| integrals_locpot_mat_els_batch       :   236      122.99s   5.759%  ------ ||
|| projectors_grad_precond_batch        :    44      133.82s   6.266%  ------ ||
|| fourier_apply_box                    : 57408      179.10s   8.386% 971.722 ||
|| edft_diag_ngwf_ham                   :   166      183.98s   8.615%  ------ ||
|| integrals_locpot_dbl_grid            :    59      214.53s  10.045%  ------ ||
|| density_fftbox_interpolate_multiply  : 12288      235.96s  11.049%  ------ ||
|| basis_add_function_to_box            : 9.606M     250.61s  11.735%  ------ ||
|| ngwf_gradient_build_batch            :    44      257.08s  12.038%  ------ ||
|| density_batch_interp_deposit         :   768      295.53s  13.838%  ------ ||
|| density_batch_row_sums               :   768      350.05s  16.391%  ------ ||
|| edft_apply_smearing_operator         :   166      358.17s  16.771%  ------ ||
|| ngwf_gradient_batch                  :    44      360.92s  16.900%  ------ ||
|| ngwf_gradient_lnv                    :    11      381.16s  17.848%  ------ ||
|| density_on_dbl_grid                  :   192      659.28s  30.871%  ------ ||
|| hamiltonian_lhxc_calculate           :   187      750.64s  35.149%  ------ ||
|| edft_calculate                       :    11     1313.16s  61.489%  ------ ||
|| ngwf_cg_optimise                     :     1     2008.25s  94.038%  ------ ||
|| total_time                           :     1     2135.59s 100.000%  ------ ||
================================================================================
Overhead of generating timer report: 
- 0 ms averaging over threads,
- 5 ms ensuring consistency across MPI ranks,
- 0 ms printing in order.

Job completed: 09-03-2020 15:44 (-0000)

