 +---------------------------------------------------------------+
 |                                                               |
 |        ####### #     # ####### ####### ####### ######         |
 |        #     # ##    # #          #    #       #     #        |
 |        #     # # #   # #          #    #       #     #        |
 |        #     # #  #  # #####      #    #####   ######         |
 |        #     # #   # # #          #    #       #              |
 |        #     # #    ## #          #    #       #              |
 |        ####### #     # #######    #    ####### #              |
 |                                                               |
 |        Linear-Scaling Ab Initio Total Energy Program          |
 |                                                               |
 |          Release for academic collaborators of ODG            |
 |                                             Version 5.3.2.12  |
 |                                                               |
 +---------------------------------------------------------------+
 |                                                               |
 |  Authors:                                                     |
 |  Jacek Dziedzic, Peter D. Haynes, Nicholas D. M. Hine,        |
 |  Arash. A. Mostofi, Mike C. Payne and Chris-Kriton Skylaris   |
 |                                                               |
 |  Contributors:                                                |
 |  J. Aarons, L. Andrinopoulos, P. W. Avraam, R. A. Bell,       |
 |  A. Bhandari, G. A. Bramley, R. J. Charlton, S. J. Clark,     |
 |  R. J. Clements, G. C. Constantinescu, F. Corsetti,           |
 |  N. Corsini, O. Dieguez, S. M. M. Dubois, K. K. B. Duff,      |
 |  J. M. Escartin, A. Greco, H. Helal, Q. O. Hill, L. P. Lee,   |
 |  J.-H. Li, E. B. Linscott, G. Moynihan, D. D. O`Regan,        |
 |  O. K. Okan, M. J. S. Phipps, C. J. Pickard,                  |
 |  J. C. A. Prentice, M. I. J. Probert, L. E. Ratcliff,         |
 |  M. Robinson, A. Ruiz Serrano, J. S. Spencer, E. W. Tait,     |
 |  G. Teobaldi, D. Turban, V. Vitale, K. A. Wilkinson,          |
 |  C. Weber, J. C. Womack, N. Yeung and T. J. Zuehlsdorff       |
 |                                                               |
 |                                   Copyright (c) 2004-2020     |
 |                                                               |
 |  Please cite:                                                 |
 |  "Introducing ONETEP: Linear-scaling density functional       |
 |   simulations on parallel computers".                         |
 |   C.-K. Skylaris, P. D. Haynes, A. A. Mostofi, M. C. Payne.   |
 |   J. Chem. Phys. 122 084119 (2005).                           |
 |                                                               |
 |          in all publications arising from your use of ONETEP. |
 |                                                               |
 +---------------------------------------------------------------+
 |                                                               |
 |   ONETEP is based on developments described in the following  |
 |   publications:                                               |
 |                                                               |
 |  "Nonorthogonal generalized Wannier function pseudopotential  |
 |   plane-wave method".                                         |
 |   C.-K. Skylaris, A. A. Mostofi, P. D. Haynes, O. Dieguez,    |
 |   M. C. Payne.                                                |
 |   Phys. Rev. B 66 035119 (2002).                              |
 |                                                               |
 |  "Preconditioned iterative minimization for linear-scaling    |
 |   electronic structure calculations".                         |
 |   A. A. Mostofi, P. D. Haynes, C.-K. Skylaris, M. C. Payne.   |
 |   J. Chem. Phys. 119(17), pp.8842-8848 (2003).                |
 |                                                               |
 |  "Total-energy calculations on a real space grid with         |
 |   localized functions and a plane-wave basis".                |
 |   A. A. Mostofi, C.-K. Skylaris, P. D. Haynes, M. C. Payne.   |
 |   Comput. Phys. Commun. 147, pp.788-802 (2002).               |
 |                                                               |
 |  "Accurate kinetic energy evaluation in electronic structure  |
 |   calculations with localized functions on real space grids"  |
 |   C.-K. Skylaris, A. A. Mostofi, P. D. Haynes, C. J. Pickard, |
 |   M. C. Payne.                                                |
 |   Comput. Phys. Commun. 140, pp.315-322 (2001).               |
 |                                                               |
 |  "Accurate ionic forces and geometry optimization in linear-  |
 |   scaling density-functional theory with local orbitals"      |
 |   N. D. M. Hine, M. Robinson, P. D. Haynes, C.-K. Skylaris,   |
 |   M. C. Payne, and A. A. Mostofi.                             |
 |   Phys. Rev. B 83 195102 (2011).                              |
 |                                                               |
 +---------------------------------------------------------------+

Job started: 19-10-2020 08:36 (+0100)
 
Reading parameters from file "48/592nano.dat" ...... done

If your calculation crashes here, before "Checking processes and threads..."
is displayed, then your stack size is insufficient.
If so, use "ulimit -s unlimited" at runtime.
You can disable this check with "check_stack_size F".

Checking processes and threads...
   Determining the default number of threads...
      No default threads set at compilation time: defaulting to 1.
      OpenMP library call suggests 4 threads.
      Hybrid MPI-OpenMP compilation detected.
      Number of MPI processes > 1.
      OMP_NUM_THREADS environment variable present and
      its value matches the one obtained from the OpenMP library call.
      Using this value as default.
      Default threads: 4
      Default applies to threads_max and threads_num_fftboxes.
      Settings in the input file override this default.
   ... done

   Running with 160 MPI processes.
   There are 10 MPI processes running on the same node as the root process.
   Each MPI process is using: 
               1 threads for simulation cell FFTs.
               1 threads for parallel FFT box operations.
               4 threads for loops over batched FFT box operations.
               4 threads in other parallel regions.
... done

Basic input checks...
Resetting ngwf_cg_rotate to TRUE for EDFT calculations
... done

Reading geometry and species blocks from file "48/592nano.dat" ...    
  Number of PPD points along a3 set to 1.  This is 
  the default value, it may have been provided also in the input file.
... done
 Writing xyz coordinates to file "48/592nano.xyz" ... done


--------------------------------------------------------------------------------
---------------------------------- INPUT FILE ----------------------------------
--------------------------------------------------------------------------------

task : singlepoint                                                              
do_properties : true                                                            
ddec_classical_hirshfeld T                                                      
dx_format T                                                                     
edft T                                                                          
edft_spin_fix 3                                                                 
output_detail VERBOSE                                                           
write_xyz T                                                                     
dispersion 4                                                                    
xc_functional PBE                                                               
cutoff_energy 830 eV                                                            
paw T                                                                           
geom_disp_tol 0.015 bohr                                                        
geom_energy_tol 1.5E-6 hartree                                                  
geom_force_tol 0.003 "ha/bohr"                                                  
EDFT_MAXIT 30                                                                   
pdos_max_l = 2                                                                  
dos_smear  0.1 eV                                                               
popn_calculate T                                                                
PDOS_PSEUDOATOMIC T                                                             
PDOS_REDUCE_SWS F                                                               
PDOS_CONSTRUCT_BASIS F                                                          
PDOS_LOWDIN T                                                                   
PDOS_ORTH_ATOM_BLOCKS F                                                         
PDOS_LCAO_OPTIMIZE F                                                            
pdos_optados_output T                                                           
homo_plot 0                                                                     
lumo_plot 0                                                                     
homo_dens_plot -1                                                               
lumo_dens_plot -1                                                               
%BLOCK SPECIES                                                                  
C C 6 4 9.0                                                                     
H H 1 1 9.0                                                                     
Li Li 3 5 9.0                                                                   
%ENDBLOCK SPECIES                                                               
%BLOCK SPECIES_POT                                                              
C "~/pp/paw/c_pbe_abinit.paw"                                                   
H "~/pp/paw/h_pbe_abinit.paw"                                                   
Li "~/pp/paw/li_pbe_abinit.paw"                                                 
%ENDBLOCK SPECIES_POT                                                           
%BLOCK SPECIES_ATOMIC_SET                                                       
C "SOLVE conf=2s2 2p2"                                                          
H "SOLVE conf=1s1"                                                              
Li "SOLVE conf=1s2 2s1 2p0"                                                     
%ENDBLOCK SPECIES_ATOMIC_SET                                                    
%BLOCK SPECIES_LDOS_GROUPS                                                      
C                                                                               
H                                                                               
Li                                                                              
%ENDBLOCK SPECIES_LDOS_GROUPS                                                   
%BLOCK LATTICE_CART                                                             
94.486315650000      0.000000000000       0.000000000000                        
0.000000000000       94.486315650000      0.000000000000                        
0.000000000000       0.000000000000       94.486315650000                       
%ENDBLOCK LATTICE_CART                                                          
%BLOCK POSITIONS_ABS                                                            
C 45.461514 50.713094 30.188789                                                 
C 45.456337 50.593042 36.271814                                                 
C 46.805707 53.059906 30.174985                                                 
C 48.165279 50.601648 36.299052                                                 
C 49.521530 48.388659 30.078988                                                 
C 49.521845 48.252541 36.238474                                                 
C 50.866756 50.734206 30.085898                                                 
C 52.225680 48.262242 36.180963                                                 
C 45.446501 55.394347 30.091331                                                 
C 45.454899 55.295745 36.318577                                                 
C 46.789334 57.732854 29.933069                                                 
C 48.164707 55.301631 36.396491                                                 
C 49.506818 53.066967 30.132825                                                 
C 49.510619 52.949690 36.383143                                                 
C 50.849800 55.410736 30.016176                                                 
C 52.209491 52.959136 36.449823                                                 
C 45.396234 50.495843 43.625771                                                 
C 45.387736 50.414889 49.639805                                                 
C 46.754410 52.848999 43.571236                                                 
C 48.091927 50.413600 49.654774                                                 
C 49.468589 48.146820 43.598367                                                 
C 49.439112 48.073165 49.722342                                                 
C 50.830257 50.506842 43.564203                                                 
C 52.136443 48.072423 49.873773                                                 
C 45.397800 55.189650 43.597624                                                 
C 45.389498 55.093239 49.732320                                                 
C 46.744299 57.530186 43.480104                                                 
C 48.091160 55.094285 49.726732                                                 
C 49.457910 52.856276 43.503730                                                 
C 49.441195 52.754307 49.696092                                                 
C 50.804605 55.184337 43.401036                                                 
C 52.138262 52.755641 49.818321                                                 
C 57.613977 48.427612 29.498210                                                 
C 57.606504 48.282698 36.451014                                                 
C 58.963076 50.776502 29.463381                                                 
C 60.313798 48.290247 36.462468                                                 
C 57.624469 48.162404 43.512653                                                 
C 57.484651 48.073709 50.475546                                                 
C 58.971468 50.514846 43.456498                                                 
C 60.190022 48.079863 50.843674                                                 
C 53.565784 50.746172 29.930529                                                 
C 53.567491 50.625006 36.367164                                                 
C 54.902469 53.091172 29.840967                                                 
C 56.271495 50.633879 36.485177                                                 
C 53.538638 50.512812 43.512668                                                 
C 53.481137 50.412478 49.937151                                                 
C 54.887781 52.856787 43.364876                                                 
C 56.168225 50.411377 50.237206                                                 
C 57.622555 43.763919 29.212272                                                 
C 57.657437 43.594066 36.432840                                                 
C 58.969806 46.086826 29.243390                                                 
C 60.392182 43.598934 36.523373                                                 
C 57.612622 43.476279 43.415444                                                 
C 57.508015 43.397975 50.635995                                                 
C 58.974352 45.808208 43.523621                                                 
C 60.205699 43.398589 50.966094                                                 
C 53.575119 46.077775 29.723839                                                 
C 53.587383 45.896186 36.293753                                                 
C 54.918799 48.414923 29.750687                                                 
C 56.287976 45.921756 36.390523                                                 
C 53.554767 45.813421 43.507592                                                 
C 53.477548 45.730179 50.065844                                                 
C 54.918809 48.158558 43.521171                                                 
C 56.161647 45.740785 50.369356                                                 
C 57.577717 57.776398 29.449820                                                 
C 57.612410 57.648407 36.719537                                                 
C 58.908442 60.139939 29.207824                                                 
C 60.341272 57.648451 36.755012                                                 
C 57.572537 57.523692 43.116508                                                 
C 57.534370 57.429331 50.328137                                                 
C 58.947521 59.870557 43.047196                                                 
C 60.255637 57.415516 50.560783                                                 
C 45.426615 64.711756 29.078326                                                 
C 45.430293 64.668506 36.226230                                                 
C 46.784778 67.053024 28.776899                                                 
C 48.145730 64.680228 36.222188                                                 
C 49.467720 62.384411 29.335133                                                 
C 49.516175 62.334223 36.362101                                                 
C 50.838151 64.749131 29.009770                                                 
C 52.237930 62.325213 36.493675                                                 
C 45.393819 64.561005 43.351227                                                 
C 45.407606 64.420995 50.502550                                                 
C 46.771287 66.945973 43.317701                                                 
C 48.097180 64.424268 50.519850                                                 
C 49.443615 62.199489 43.406065                                                 
C 49.442558 62.092747 50.296089                                                 
C 50.791929 64.560233 43.564945                                                 
C 52.125182 62.101264 50.417981                                                 
C 53.530219 60.078970 29.577160                                                 
C 53.577608 59.976148 36.569411                                                 
C 54.882391 62.448417 29.360537                                                 
C 56.272594 59.985915 36.637100                                                 
C 53.488494 59.836030 43.266084                                                 
C 53.478048 59.769538 50.221189                                                 
C 54.850367 62.175716 43.299140                                                 
C 56.197330 59.768049 50.332338                                                 
C 57.601670 53.103938 29.600550                                                 
C 57.595980 52.972998 36.657525                                                 
C 58.941649 55.463334 29.423847                                                 
C 60.324296 52.998155 36.748830                                                 
C 57.595605 52.852809 43.291259                                                 
C 57.504157 52.754765 50.368744                                                 
C 58.934954 55.203179 43.142537                                                 
C 60.219731 52.767133 50.741696                                                 
C 45.432588 60.060348 29.703586                                                 
C 45.462278 59.989165 36.326208                                                 
C 46.781180 62.386291 29.387711                                                 
C 48.150065 59.975723 36.378355                                                 
C 49.489871 57.739222 29.900903                                                 
C 49.504144 57.640112 36.446332                                                 
C 50.833209 60.074252 29.637196                                                 
C 52.220930 57.645586 36.546572                                                 
C 45.374118 59.883078 43.455295                                                 
C 45.398654 59.759948 50.034415                                                 
C 46.736427 62.216665 43.382901                                                 
C 48.093938 59.765377 50.028660                                                 
C 49.442627 57.520884 43.383516                                                 
C 49.440603 57.431043 49.869952                                                 
C 50.797216 59.865400 43.333144                                                 
C 52.138348 57.432658 49.962878                                                 
C 53.545975 55.417838 29.881645                                                 
C 53.558073 55.312324 36.569954                                                 
C 54.878388 57.766373 29.673578                                                 
C 56.254136 55.310946 36.668424                                                 
C 53.527817 55.179909 43.324968                                                 
C 53.485656 55.097098 49.937112                                                 
C 54.865495 57.510977 43.234741                                                 
C 56.177400 55.091184 50.171447                                                 
H 27.308090 41.313065 28.528978                                                 
H 28.240534 39.363009 36.051067                                                 
H 27.100630 41.104128 43.545257                                                 
H 28.192397 39.317221 50.737568                                                 
H 41.843158 30.235137 28.931253                                                 
C 42.866184 32.029119 29.003144                                                 
H 44.463089 30.041303 36.076161                                                 
H 41.718667 29.928827 43.571201                                                 
C 42.745318 31.718339 43.576151                                                 
H 44.349805 29.975859 50.858988                                                 
H 29.635738 37.225192 28.805003                                                 
C 30.665272 39.015288 28.866627                                                 
H 32.356686 37.033730 36.296678                                                 
H 33.702550 34.857544 29.025812                                                 
C 34.730861 36.646910 29.119920                                                 
H 29.459724 36.988770 43.690632                                                 
C 30.496826 38.767645 43.536228                                                 
H 32.254990 36.975110 50.775395                                                 
H 33.525026 34.621948 43.723884                                                 
C 34.562776 36.401746 43.575669                                                 
H 37.768809 32.546535 28.892574                                                 
C 38.787345 34.341142 29.021151                                                 
H 40.367368 32.431843 36.273804                                                 
H 37.580518 32.273137 43.740983                                                 
C 38.626883 34.050148 43.628652                                                 
H 40.295504 32.333267 50.845843                                                 
H 46.550465 30.273202 29.030219                                                 
H 46.486942 29.948422 43.558518                                                 
H 25.781731 48.179942 35.915827                                                 
C 27.843367 48.194386 36.035296                                                 
H 25.817648 48.063636 51.045180                                                 
C 27.878601 48.071283 50.878843                                                 
H 25.853925 43.441934 35.849422                                                 
H 27.302188 46.006455 28.563116                                                 
C 27.916124 43.467913 35.978592                                                 
H 25.826871 43.386084 50.883045                                                 
H 27.119060 45.827327 43.447490                                                 
C 27.891532 43.385950 50.801322                                                 
H 25.768171 57.661530 36.160860                                                 
H 27.217866 59.956197 28.598586                                                 
C 27.833081 57.652415 36.227762                                                 
H 25.844692 57.426425 51.228786                                                 
H 27.024463 59.801457 44.059533                                                 
C 27.907884 57.427129 51.109906                                                 
H 25.755261 52.902556 35.966166                                                 
H 27.255221 55.264823 28.651466                                                 
C 27.816861 52.919007 36.098779                                                 
H 25.812570 52.740915 51.071612                                                 
H 27.086640 55.053880 43.520223                                                 
C 27.873158 52.738608 50.917206                                                 
C 29.368009 41.303044 28.685284                                                 
C 29.256693 41.161831 36.108813                                                 
C 30.652747 43.661794 28.803297                                                 
C 31.948886 41.128282 36.212119                                                 
C 33.353866 38.935939 29.064325                                                 
C 33.366788 38.839474 36.325010                                                 
C 34.702137 41.319031 29.226420                                                 
C 36.033324 38.840081 36.559421                                                 
C 29.362209 46.003476 28.742490                                                 
C 29.154414 45.805039 36.053352                                                 
C 30.655981 48.313238 28.785846                                                 
C 31.933459 45.838278 36.187780                                                 
C 33.366940 43.652893 29.115439                                                 
C 33.306227 43.506408 36.266998                                                 
C 34.712068 45.997193 29.328341                                                 
C 36.008450 43.529927 36.377607                                                 
C 29.165867 41.092258 43.490813                                                 
C 29.211720 41.114790 50.726664                                                 
C 30.460302 43.435685 43.282148                                                 
C 31.897651 41.057658 50.638483                                                 
C 33.163826 38.694829 43.421538                                                 
C 33.280220 38.768464 50.677160                                                 
C 34.556350 41.092795 43.302684                                                 
C 35.930313 38.742872 50.746146                                                 
C 29.186383 45.806198 43.401982                                                 
C 29.173165 45.760982 50.774656                                                 
C 30.512100 48.113384 43.515254                                                 
C 31.899611 45.749557 50.555253                                                 
C 33.212514 43.445301 43.304893                                                 
C 33.244747 43.423242 50.506721                                                 
C 34.569814 45.780557 43.342874                                                 
C 35.950978 43.424717 50.324055                                                 
C 41.450384 39.013002 29.444405                                                 
C 41.442372 38.875097 36.436243                                                 
C 42.785618 41.352281 29.692527                                                 
C 44.142826 38.843306 36.502051                                                 
C 41.345569 38.740861 43.453755                                                 
C 41.355791 38.764519 50.492641                                                 
C 42.700148 41.099119 43.391555                                                 
C 44.037508 38.741694 50.322361                                                 
C 37.414391 41.324129 29.430796                                                 
C 37.383009 41.209086 36.471934                                                 
C 38.742358 43.668548 29.684642                                                 
C 40.080693 41.200697 36.460182                                                 
C 37.256886 41.095997 43.329429                                                 
C 37.299215 41.106866 50.465696                                                 
C 38.619226 43.444498 43.358250                                                 
C 39.993630 41.085904 50.292047                                                 
C 41.439158 34.318952 29.064129                                                 
C 41.435499 34.202432 36.355380                                                 
C 42.803399 36.680481 29.261093                                                 
C 44.122822 34.111199 36.482862                                                 
C 41.345225 33.976173 43.606846                                                 
C 41.338094 34.115774 50.722936                                                 
C 42.714378 36.402589 43.525206                                                 
C 44.018635 34.059733 50.814912                                                 
C 37.412163 36.603304 29.096386                                                 
C 37.417029 36.555175 36.416283                                                 
C 38.771585 38.991014 29.308916                                                 
C 40.092108 36.513585 36.266894                                                 
C 37.223884 36.347519 43.534433                                                 
C 37.317071 36.453014 50.622842                                                 
C 38.612952 38.749034 43.450663                                                 
C 39.983579 36.403520 50.785830                                                 
C 41.419752 48.357645 30.044708                                                 
C 41.384126 48.236489 36.285587                                                 
C 42.758814 50.703510 30.134457                                                 
C 44.101270 48.238544 36.176429                                                 
C 41.317697 48.132783 43.551003                                                 
C 41.335718 48.079530 49.756230                                                 
C 42.680329 50.491599 43.614284                                                 
C 44.037079 48.075789 49.677743                                                 
C 29.314820 55.289265 28.839427                                                 
C 29.094001 55.319088 36.214890                                                 
C 30.584592 57.643856 28.887800                                                 
C 31.886538 55.306179 36.269756                                                 
C 33.356887 53.008606 29.196056                                                 
C 33.234025 52.950147 36.279500                                                 
C 34.667052 55.346721 29.394473                                                 
C 35.961250 52.938882 36.335850                                                 
C 29.154857 55.112365 43.531017                                                 
C 29.179094 55.067671 50.948603                                                 
C 30.409628 57.481262 43.675110                                                 
C 31.901627 55.081960 50.713620                                                 
C 33.233103 52.817562 43.491393                                                 
C 33.250492 52.736217 50.470922                                                 
C 34.545233 55.181213 43.553509                                                 
C 35.942356 52.745960 50.169173                                                 
C 37.374355 50.681082 29.744638                                                 
C 37.313509 50.580973 36.334034                                                 
C 38.707508 53.030143 29.873181                                                 
C 40.010335 50.581033 36.315299                                                 
C 37.278052 50.482063 43.474966                                                 
C 37.286094 50.417044 49.993271                                                 
C 38.610016 52.834248 43.558814                                                 
C 39.985489 50.416800 49.802977                                                 
C 41.434331 43.680341 29.837416                                                 
C 41.416594 43.551271 36.412102                                                 
C 42.775347 46.023469 30.018002                                                 
C 44.122773 43.539730 36.400815                                                 
C 41.331281 43.430940 43.408314                                                 
C 41.338987 43.411925 49.989901                                                 
C 42.677365 45.770860 43.515802                                                 
C 44.038803 43.402918 49.884739                                                 
C 29.351201 50.645735 28.954626                                                 
C 29.110086 50.559959 36.117670                                                 
C 30.633831 52.991348 28.837901                                                 
C 31.890246 50.571906 36.236129                                                 
C 33.380381 48.323425 29.149779                                                 
C 33.263588 48.197544 36.250527                                                 
C 34.692365 50.669483 29.391220                                                 
C 35.982184 48.218589 36.321554                                                 
C 29.213092 50.452708 43.328421                                                 
C 29.161687 50.389965 50.829951                                                 
C 30.509111 52.803723 43.465354                                                 
C 31.901066 50.399830 50.564455                                                 
C 33.240308 48.130114 43.411460                                                 
C 33.248710 48.083639 50.384766                                                 
C 34.574706 50.471755 43.438374                                                 
C 35.938332 48.084197 50.118184                                                 
C 37.391236 46.000243 29.663197                                                 
C 37.335608 45.892033 36.361660                                                 
C 38.725229 48.346530 29.852224                                                 
C 40.051749 45.884631 36.365677                                                 
C 37.278969 45.774845 43.373822                                                 
C 37.289329 45.752996 50.080323                                                 
C 38.620305 48.135039 43.459776                                                 
C 39.987205 45.745589 49.906320                                                 
C 45.495092 32.049887 29.051135                                                 
C 45.506101 31.822272 36.156319                                                 
C 46.877529 34.353754 29.141691                                                 
C 48.197560 31.819243 36.112226                                                 
H 49.231624 30.035478 35.972424                                                 
H 50.598009 32.636191 28.994060                                                 
C 45.488715 36.696649 29.273951                                                 
C 45.485074 36.498057 36.517747                                                 
C 46.824148 39.049954 29.425651                                                 
C 48.194527 36.490300 36.524369                                                 
C 49.552638 34.417381 29.103322                                                 
C 49.577174 34.091759 36.368536                                                 
C 50.891753 36.708785 29.050689                                                 
C 52.269458 34.178012 36.257037                                                 
C 45.437260 31.730544 43.487541                                                 
C 45.399911 31.755282 50.767900                                                 
C 46.810692 34.052826 43.471330                                                 
C 48.018562 31.733917 50.561390                                                 
H 49.040913 29.937223 50.543582                                                 
H 50.548584 32.361756 43.111682                                                 
C 45.430889 36.420692 43.438940                                                 
C 45.385274 36.397763 50.511779                                                 
C 46.759568 38.764266 43.324528                                                 
C 48.068361 36.374897 50.395013                                                 
C 49.488965 34.139456 43.173401                                                 
C 49.432761 34.006640 50.474449                                                 
C 50.816901 36.449834 43.042956                                                 
C 52.113114 34.038292 50.378610                                                 
H 53.322157 32.402339 36.130985                                                 
H 53.135350 32.244052 50.449052                                                 
C 57.599471 39.111853 29.103506                                                 
C 57.719039 38.870927 36.208034                                                 
C 58.974019 41.414952 28.960440                                                 
C 60.381028 38.956328 36.361441                                                 
C 57.565417 38.815331 43.346298                                                 
C 57.535099 38.692877 50.746965                                                 
C 58.978453 41.108115 43.368923                                                 
C 60.206501 38.772417 50.922075                                                 
C 45.474921 46.034560 30.053875                                                 
C 45.467425 45.883095 36.291057                                                 
C 46.820018 48.378756 30.143213                                                 
C 48.177994 45.881425 36.297940                                                 
C 49.526913 43.721093 29.791669                                                 
C 49.525690 43.547006 36.376645                                                 
C 50.875689 46.060836 29.898541                                                 
C 52.244806 43.559173 36.354354                                                 
C 45.401251 45.780497 43.545106                                                 
C 45.387324 45.735944 49.730793                                                 
C 46.754019 48.142026 43.603736                                                 
C 48.089212 45.732794 49.748765                                                 
C 49.458959 43.460079 43.412749                                                 
C 49.435202 43.393894 49.896076                                                 
C 50.821002 45.802943 43.530534                                                 
C 52.130868 43.395513 50.054263                                                 
C 53.568519 41.429468 29.289671                                                 
C 53.600592 41.221886 36.373945                                                 
C 54.918967 43.751977 29.428096                                                 
C 56.322045 41.244090 36.347011                                                 
C 53.518895 41.162179 43.293900                                                 
C 53.476419 41.057374 50.288897                                                 
C 54.899480 43.481394 43.399957                                                 
C 56.179387 41.062027 50.568527                                                 
H 57.344440 34.769473 35.697746                                                 
H 58.633895 37.324051 28.979910                                                 
H 57.215210 34.605663 50.682580                                                 
H 58.574372 37.007058 43.459091                                                 
C 45.478383 41.368667 29.695026                                                 
C 45.490227 41.195440 36.485269                                                 
C 46.828931 43.705601 29.881172                                                 
C 48.181316 41.197268 36.478284                                                 
C 49.512713 39.067565 29.321424                                                 
C 49.536110 38.836691 36.507727                                                 
C 50.874637 41.396141 29.491869                                                 
C 52.250144 38.858454 36.382868                                                 
C 45.392178 41.102020 43.370511                                                 
C 45.388996 41.065006 50.030446                                                 
C 46.756344 43.445780 43.423710                                                 
C 48.082701 41.059192 50.007801                                                 
C 49.460561 38.800520 43.202702                                                 
C 49.427980 38.717973 50.202074                                                 
C 50.815027 41.132979 43.289620                                                 
C 52.131713 38.710584 50.292136                                                 
C 53.569022 36.774738 29.167191                                                 
C 53.623016 36.464648 36.224274                                                 
C 54.940014 39.066138 29.015677                                                 
C 56.317423 36.540807 35.960489                                                 
C 53.491179 36.507788 43.276827                                                 
C 53.503174 36.321576 50.457053                                                 
C 54.874257 38.821448 43.266390                                                 
C 56.174489 36.387615 50.584868                                                 
H 61.430650 37.178383 36.306491                                                 
H 62.681178 39.683124 28.828901                                                 
H 61.243964 36.986162 50.994495                                                 
H 62.674237 39.360282 43.444961                                                 
H 28.156212 61.783468 36.067017                                                 
H 28.218211 61.479022 51.318208                                                 
C 29.279121 59.984923 28.740720                                                 
C 29.177115 59.985441 36.145253                                                 
C 30.570192 62.291948 28.858364                                                 
C 31.871438 60.027731 36.312387                                                 
C 33.303843 57.678179 29.190537                                                 
C 33.244517 57.650613 36.334937                                                 
C 34.628061 60.027287 29.261529                                                 
C 35.946852 57.628288 36.374631                                                 
H 29.523818 64.070117 28.754683                                                 
H 32.291158 64.137266 36.377978                                                 
C 33.252064 62.396284 29.036594                                                 
C 33.287897 62.324034 36.315766                                                 
C 34.625035 64.704730 29.062897                                                 
C 35.974055 62.322437 36.381053                                                 
C 29.079664 59.821343 43.877946                                                 
C 29.233770 59.682270 51.168962                                                 
C 30.430497 62.177025 43.741032                                                 
C 31.911518 59.739202 51.054857                                                 
C 33.165884 57.505099 43.606089                                                 
C 33.254112 57.402175 50.730353                                                 
C 34.521310 59.866356 43.658994                                                 
C 35.957132 57.409353 50.439745                                                 
H 29.382461 63.956854 43.780982                                                 
H 32.286503 63.828395 51.260534                                                 
C 33.100938 62.264768 43.607342                                                 
C 33.290331 62.055505 50.867074                                                 
C 34.527138 64.577071 43.408094                                                 
C 35.963191 62.076372 50.828964                                                 
C 41.390445 57.718675 29.861323                                                 
C 41.378205 57.631269 36.324637                                                 
C 42.739466 60.053285 29.687348                                                 
C 44.099758 57.643557 36.309045                                                 
C 41.311852 57.541867 43.634759                                                 
C 41.342312 57.421029 50.010883                                                 
C 42.684192 59.885161 43.517829                                                 
C 44.043194 57.425736 49.889412                                                 
C 37.337542 60.041483 29.482891                                                 
C 37.331973 59.956743 36.398552                                                 
C 38.687245 62.388147 29.352892                                                 
C 40.033452 59.981336 36.386489                                                 
C 37.228427 59.879834 43.661789                                                 
C 37.313885 59.723590 50.517035                                                 
C 38.608618 62.229968 43.596914                                                 
C 39.999463 59.746531 50.306148                                                 
C 41.400707 53.040001 30.060297                                                 
C 41.367900 52.933872 36.292677                                                 
C 42.743422 55.387309 30.042255                                                 
C 44.093409 52.935902 36.295205                                                 
C 41.313833 52.841178 43.631088                                                 
C 41.336104 52.752973 49.773626                                                 
C 42.668534 55.194494 43.729648                                                 
C 44.036912 52.753864 49.683296                                                 
C 37.354674 55.367600 29.706117                                                 
C 37.287065 55.270885 36.358732                                                 
C 38.688599 57.708432 29.725999                                                 
C 40.014047 55.283112 36.320009                                                 
C 37.255229 55.193273 43.584748                                                 
C 37.290380 55.081237 50.148190                                                 
C 38.596036 57.529048 43.626987                                                 
C 39.987135 55.087903 49.941054                                                 
C 41.369106 67.077384 28.966006                                                 
C 41.373951 66.974002 36.389277                                                 
C 42.768716 69.360855 28.868841                                                 
C 44.059675 67.051989 36.138323                                                 
C 41.305478 66.972075 43.468308                                                 
C 41.364714 66.712907 50.787506                                                 
C 42.705366 69.243041 43.555633                                                 
C 44.038981 66.770415 50.705998                                                 
H 37.666578 68.835139 28.964682                                                 
H 40.322555 68.753719 36.426045                                                 
H 37.587281 68.698987 43.611169                                                 
H 40.329590 68.495885 50.956265                                                 
C 41.387164 62.383132 29.397463                                                 
C 41.394578 62.303804 36.395433                                                 
C 42.742742 64.721187 29.117312                                                 
C 44.092662 62.330388 36.310801                                                 
C 41.325260 62.230972 43.458706                                                 
C 41.367617 62.073150 50.465269                                                 
C 42.683411 64.568039 43.376504                                                 
C 44.051992 62.083504 50.300559                                                 
H 33.589338 66.482992 28.887469                                                 
H 33.514878 66.371185 43.222289                                                 
C 37.303634 64.766306 29.112398                                                 
C 37.360341 64.622474 36.392412                                                 
C 38.692051 67.044561 29.072796                                                 
C 40.036192 64.668475 36.529110                                                 
C 37.236914 64.627578 43.537021                                                 
C 37.331501 64.379790 50.773006                                                 
C 38.614747 66.906380 43.580037                                                 
C 40.022805 64.431867 50.817992                                                 
C 61.657728 41.477883 28.931654                                                 
C 61.688047 41.267490 36.551851                                                 
C 62.976082 43.747042 28.998827                                                 
H 63.750365 41.275429 36.646968                                                 
C 61.702310 46.101631 29.077794                                                 
C 61.666783 45.972811 36.470779                                                 
C 63.005685 48.444175 29.167348                                                 
H 63.738091 46.010291 36.395413                                                 
H 65.042945 43.748277 28.955639                                                 
C 61.646106 41.150666 43.451848                                                 
C 61.496240 41.053476 51.033612                                                 
C 62.985771 43.441112 43.596913                                                 
H 63.558291 41.071943 51.198804                                                 
C 61.726729 45.793094 43.626340                                                 
C 61.512234 45.755708 50.871783                                                 
C 63.066299 48.181733 43.675155                                                 
H 63.548443 45.772875 51.272447                                                 
H 65.052026 43.419281 43.670095                                                 
C 61.663142 55.467404 29.239157                                                 
C 61.626835 55.300497 36.741065                                                 
C 62.928044 57.838050 29.177408                                                 
H 63.694630 55.295230 36.784309                                                 
H 65.049353 53.161273 29.144468                                                 
C 61.674512 55.219675 43.174569                                                 
C 61.534993 55.064451 50.683257                                                 
C 62.945156 57.553357 43.094357                                                 
H 63.592608 55.056200 50.884714                                                 
H 65.053198 52.913395 43.538041                                                 
C 61.714742 50.786583 29.251062                                                 
C 61.620355 50.653254 36.392224                                                 
C 62.986074 53.139627 29.256540                                                 
H 65.069442 48.445155 29.073312                                                 
C 61.723907 50.552244 43.572783                                                 
C 61.502442 50.410499 50.814621                                                 
C 62.987668 52.883887 43.453616                                                 
H 65.135122 48.184076 43.629405                                                 
H 41.730949 71.148778 28.857059                                                 
H 44.395380 71.131700 36.147286                                                 
H 41.689582 71.036423 43.665445                                                 
H 44.382865 70.845335 50.897210                                                 
C 45.383082 69.351836 28.761328                                                 
C 45.439394 69.349700 36.185348                                                 
H 46.428123 71.134110 28.667354                                                 
C 48.125978 69.361390 36.150650                                                 
C 49.452987 67.029981 28.947827                                                 
C 49.521267 67.090653 36.177504                                                 
H 50.480950 68.819514 28.807182                                                 
C 52.225593 67.017322 36.237137                                                 
H 49.142869 71.156760 36.148547                                                 
C 45.383094 69.239040 43.505803                                                 
C 45.429125 69.065094 50.827394                                                 
H 46.422814 71.023735 43.522932                                                 
C 48.060885 69.070240 50.863727                                                 
C 49.461862 66.869746 43.466774                                                 
C 49.471003 66.775045 50.768410                                                 
H 50.517266 68.649769 43.510203                                                 
C 52.124412 66.740204 50.826014                                                 
H 49.095910 70.855017 50.970877                                                 
H 57.315194 66.449840 35.999241                                                 
H 57.207010 66.217283 50.785083                                                 
H 53.255690 68.806211 36.131000                                                 
H 53.148542 68.528255 50.999677                                                 
C 57.535234 62.422377 29.318559                                                 
C 57.658328 62.355662 36.503212                                                 
H 58.556485 64.215271 29.170757                                                 
C 60.327168 62.282482 36.621576                                                 
C 57.540009 62.157368 43.444053                                                 
C 57.555614 62.143194 50.547892                                                 
H 58.554973 63.966590 43.587006                                                 
C 60.247648 62.059708 50.611415                                                 
C 53.497032 64.720018 29.155648                                                 
C 53.626143 64.721989 36.363265                                                 
C 56.285657 64.676268 36.265985                                                 
C 53.481527 64.500007 43.375950                                                 
C 53.493438 64.478146 50.690361                                                 
C 56.176400 64.432239 50.640611                                                 
C 61.605011 60.086469 29.161567                                                 
C 61.638530 59.987183 36.731986                                                 
H 62.613480 61.890189 29.075595                                                 
H 63.701398 59.973382 36.775310                                                 
H 64.994856 57.845221 29.108976                                                 
H 61.365838 64.068017 36.541250                                                 
C 61.609027 59.827374 43.030277                                                 
C 61.549225 59.765144 50.662261                                                 
H 62.627285 61.626446 42.979391                                                 
H 63.611036 59.748714 50.780636                                                 
H 65.011238 57.560172 43.113480                                                 
H 61.282060 63.844313 50.718166                                                 
H 63.539223 50.412574 51.214390                                                 
H 36.286038 34.663216 50.741126                                                 
H 36.315264 66.142871 51.180656                                                 
H 27.144113 50.454842 43.370645                                                 
H 54.533913 66.280483 43.586452                                                 
H 63.694656 50.650869 36.341569                                                 
H 54.528516 34.713145 43.344138                                                 
H 36.386401 34.761168 36.368327                                                 
H 36.318786 66.409718 36.457859                                                 
H 54.522183 66.507636 28.985643                                                 
H 27.291140 50.637747 28.760377                                                 
H 54.609235 34.989695 29.048120                                                 
Li 59.068858 60.017075 33.151635                                                
Li 30.292906 43.440338 47.200370                                                
Li 44.043994 34.092847 32.583324                                                
Li 46.846131 67.074142 47.230750                                                
Li 60.272815 43.146047 47.015675                                                
Li 31.276434 59.949902 32.398245                                                
Li 51.357279 64.321611 32.864531                                                
Li 40.343605 65.156609 32.628776                                                
Li 60.208701 53.287090 46.823042                                                
Li 30.121185 52.802760 47.313997                                                
Li 35.605178 38.931302 46.892193                                                
Li 55.342281 38.636933 47.092492                                                
Li 36.102006 38.575297 32.671600                                                
Li 50.477578 36.337950 32.908767                                                
Li 39.967159 36.415772 46.953890                                                
Li 50.661507 36.066057 46.915087                                                
Li 54.801718 62.587409 47.102233                                                
Li 40.232644 64.674966 46.955134                                                
Li 30.527613 53.245055 32.700028                                                
Li 30.547785 48.032193 32.649201                                                
Li 31.589993 59.753342 47.175346                                                
Li 60.650384 53.392837 32.848862                                                
Li 54.750844 38.964943 32.836141                                                
Li 60.683238 48.090684 32.673744                                                
Li 46.693102 67.331514 32.676600                                                
Li 59.378026 59.783592 46.993219                                                
Li 31.387265 41.446646 32.361537                                                
Li 44.474428 33.681207 46.971135                                                
Li 59.492527 41.417031 32.892916                                                
Li 36.042255 62.187318 40.164493                                                
Li 30.349334 47.878722 39.619939                                                
Li 34.958742 63.910791 47.340495                                                
Li 50.667429 64.831536 39.727919                                                
Li 39.889941 36.193956 40.110889                                                
Li 61.753560 48.391816 40.017720                                                
Li 62.331227 48.143036 47.450471                                                
Li 55.857710 37.327933 39.799227                                                
Li 30.357330 53.086001 39.643328                                                
Li 44.085765 48.166891 40.114937                                                
Li 42.715663 55.350621 39.787286                                                
Li 35.712469 62.734044 32.600899                                                
Li 31.545716 40.808594 39.992819                                                
Li 52.083775 48.218521 40.094981                                                
Li 56.242575 64.116537 40.115838                                                
Li 43.960600 67.301280 39.999566                                                
Li 30.199254 59.673783 40.057442                                                
Li 47.031184 32.990873 39.758934                                                
Li 61.990080 58.240680 39.993600                                                
%ENDBLOCK POSITIONS_ABS                                                         

--------------------------------------------------------------------------------
-------------------------------- END INPUT FILE --------------------------------
--------------------------------------------------------------------------------


 
<<<<<<<<<<<<<<<<<<<<<<<<<<<<<<<<< Full system >>>>>>>>>>>>>>>>>>>>>>>>>>>>>>>>>>
<<<<<<<<<<<<<<<<<<<<<<<<<<< PAW Dataset information >>>>>>>>>>>>>>>>>>>>>>>>>>>
File: ~/pp/paw/c_pbe_abinit.paw; rc = 1.25 bohr; shape type =  3; rshape = 1.25 bohr;
  Atomic number:  6;  ionic charge:  4.000000
    Partial Wave 1: l = 0
    Partial Wave 2: l = 0
    Partial Wave 3: l = 1
    Partial Wave 4: l = 1
  Core charge supplied for Nonlinear Core Corrections
File: ~/pp/paw/h_pbe_abinit.paw; rc = 0.90 bohr; shape type =  3; rshape = 0.90 bohr;
  Atomic number:  1;  ionic charge:  1.000000
    Partial Wave 1: l = 0
    Partial Wave 2: l = 0
File: ~/pp/paw/li_pbe_abinit.paw; rc = 1.42 bohr; shape type =  3; rshape = 1.42 bohr;
  Atomic number:  3;  ionic charge:  3.000000
    Partial Wave 1: l = 0
    Partial Wave 2: l = 0
    Partial Wave 3: l = 0
    Partial Wave 4: l = 1
    Partial Wave 5: l = 1
<<<<<<<<<<<<<<<<<<<<<<<<<<<<<<<<<<<<<<< >>>>>>>>>>>>>>>>>>>>>>>>>>>>>>>>>>>>>>>

-------------------------- Atom counting information ---------------------------
Symbol    Natoms    Nngwfs    Nprojs
  C        484      1936      3872
  H        108       108       216
  Li        48       240       432
.......   ......    ......    ......
Totals:    640      2284      4520
--------------------------------------------------------------------------------

=============================== PSINC grid sizes ===============================
                      Simulation cell:  189 x 189 x 189
                              FFT-box:  117 x 117 x 117
                                  PPD:    7 x   7 x   1
Grid space d1=  0.499927596032a0 (KE cutoff=  30.39413Eh = 827.06648eV)
Grid space d2=  0.499927596032a0 (KE cutoff=  30.39413Eh = 827.06648eV)
Grid space d3=  0.499927596032a0 (KE cutoff=  30.39413Eh = 827.06648eV)
================================================================================
  
WARNING in cell_grid_distribute:
Average of less than one 23-slab per node, so workload cannot be
equally balanced between nodes.

********************* Fourier parallelisation information **********************
       Coarse grid (whole simulation cell) dimensions:    189   189   189
          Real-space ('12') slabs/node (min max mean):      1     2     1
         Recip-space ('23') slabs/node (min max mean):      0     1     0
********************************************************************************

********************* Fourier parallelisation information **********************
       Double grid (whole simulation cell) dimensions:    378   378   378
          Real-space ('12') slabs/node (min max mean):      2     3     2
         Recip-space ('23') slabs/node (min max mean):      1     2     1
********************************************************************************

Atom SCF Calculation for C  : Z (AE atom) =   6 : Z (PS atom) =   4
Config String: 2s2 2p2
Orbitals (num,occ):  2     2.00 2.00
Orbitals   (num,l):  2        0    1
Real-space Grid (nr,dr,rmax): 1377    0.0065406977    9.0000000000
Spherical Bessel Basis (nsws,lmax,cutoff):   37    2  183.0099912382
Confining potential (l,width,scale):  0    3.0000000000  100.0000000000
Confining potential (l,width,scale):  1    3.0000000000  100.0000000000
  1         -5.4350126632   -1.2715272878    4.5135247139   -1.5681949477
  2         -5.3876836850   -1.3562195125    4.4235426751   -1.5380057521
  3         -5.3928844498   -1.3758175853    4.4021699684   -1.5318377811
  4         -5.3988962903   -1.3800385428    4.3975423583   -1.5307324410
  5         -5.4018428823   -1.3823489590    4.3950111904   -1.5301555648
  6         -5.4033571720   -1.3835805046    4.3936635548   -1.5298576834
  7         -5.4041480647   -1.3842324820    4.3929512000   -1.5297032953
  8         -5.4045641108   -1.3845769138    4.3925755232   -1.5296229456
  9         -5.4047838258   -1.3847587737    4.3923775340   -1.5295810042
 10         -5.4049001347   -1.3848548089    4.3922731819   -1.5295590658
 11         -5.4049618018   -1.3849055476    4.3922181562   -1.5295475724
 12         -5.4049945351   -1.3849323732    4.3921891206   -1.5295415432
 13         -5.4050119258   -1.3849465673    4.3921737867   -1.5295383767
 14         -5.4050211723   -1.3849540841    4.3921656816   -1.5295367119
 15         -5.4050260920   -1.3849580684    4.3921613935   -1.5295358358
 16         -5.4050287113   -1.3849601822    4.3921591228   -1.5295353742
 17         -5.4050301068   -1.3849613045    4.3921579192   -1.5295351307
 18         -5.4050308507   -1.3849619010    4.3921572806   -1.5295350022
 19         -5.4050312476   -1.3849622183    4.3921569415   -1.5295349343
 20         -5.4050314594   -1.3849623873    4.3921567612   -1.5295348984
 21         -5.4050315725   -1.3849624773    4.3921566653   -1.5295348794
 22         -5.4050316330   -1.3849625253    4.3921566143   -1.5295348693
Atom SCF converged after  22 iterations to a total energy of     -5.40503163

Atom SCF Calculation for H  : Z (AE atom) =   1 : Z (PS atom) =   1
Config String: 1s1
Orbitals (num,occ):  1     1.00
Orbitals   (num,l):  1        0
Real-space Grid (nr,dr,rmax): 1377    0.0065406977    9.0000000000
Spherical Bessel Basis (nsws,lmax,cutoff):   37    1  183.0099912382
Confining potential (l,width,scale):  0    3.0000000000  100.0000000000
  1         -0.3605254152   -0.2399954029    0.2820952946   -0.2424203210
  2         -0.4156854077   -0.2398249290    0.2871789324   -0.2464796203
  3         -0.4412552402   -0.2379720642    0.2899127187   -0.2499011370
  4         -0.4517265951   -0.2371980236    0.2908966173   -0.2514141636
  5         -0.4557775773   -0.2369735141    0.2911607883   -0.2519713623
  6         -0.4573363459   -0.2369240355    0.2912108681   -0.2521663171
  7         -0.4579443228   -0.2369187864    0.2912112833   -0.2522344454
  8         -0.4581858602   -0.2369215483    0.2912049187   -0.2522587615
  9         -0.4582834939   -0.2369242589    0.2912002081   -0.2522677042
 10         -0.4583235236   -0.2369258837    0.2911975892   -0.2522710965
 11         -0.4583401154   -0.2369267223    0.2911962825   -0.2522724192
 12         -0.4583470483   -0.2369271266    0.2911956643   -0.2522729467
 13         -0.4583499624   -0.2369273145    0.2911953803   -0.2522731607
 14         -0.4583511926   -0.2369274000    0.2911952521   -0.2522732486
 15         -0.4583517136   -0.2369274385    0.2911951948   -0.2522732850
 16         -0.4583519349   -0.2369274556    0.2911951693   -0.2522733002
 17         -0.4583520290   -0.2369274632    0.2911951581   -0.2522733066
Atom SCF converged after  17 iterations to a total energy of     -0.45835203

Atom SCF Calculation for Li : Z (AE atom) =   3 : Z (PS atom) =   3
Config String: 1s2 2s1 2p0
Orbitals (num,occ):  3     2.00 1.00 0.00
Orbitals   (num,l):  3        0    0    1
Real-space Grid (nr,dr,rmax): 1377    0.0065406977    9.0000000000
Spherical Bessel Basis (nsws,lmax,cutoff):   37    2  183.0099912382
Confining potential (l,width,scale):  0    3.0000000000  100.0000000000
Confining potential (l,width,scale):  1    3.0000000000  100.0000000000
  1         -6.0640888065   -4.6655401716    2.5388576516   -0.9989538799
  2         -6.9627542978   -4.0954079129    2.9808988108   -1.1965571426
  3         -7.2692687601   -3.8889996707    3.2029735703   -1.3193883705
  4         -7.3784440298   -3.8322099748    3.2868571989   -1.3711018151
  5         -7.4170278248   -3.8191968371    3.3144974220   -1.3911175539
  6         -7.4303549880   -3.8172386945    3.3228486489   -1.3986896266
  7         -7.4348052089   -3.8175483495    3.3251259310   -1.4015352495
  8         -7.4362242328   -3.8180607346    3.3256233205   -1.4026016384
  9         -7.4366459715   -3.8184145665    3.3256561549   -1.4029998726
 10         -7.4367560626   -3.8186169740    3.3256001574   -1.4031477379
 11         -7.4367765260   -3.8187239825    3.3255481763   -1.4032021548
 12         -7.4367751741   -3.8187782620    3.3255144587   -1.4032219192
 13         -7.4367707398   -3.8188051288    3.3254952336   -1.4032289600
 14         -7.4367680349   -3.8188156035    3.3254870176   -1.4032309087
 15         -7.4367661982   -3.8188217406    3.3254819951   -1.4032318132
 16         -7.4367650112   -3.8188253257    3.3254789583   -1.4032322224
 17         -7.4367642682   -3.8188274151    3.3254771375   -1.4032324006
 18         -7.4367638134   -3.8188286307    3.3254760529   -1.4032324736
 19         -7.4367635392   -3.8188293370    3.3254754103   -1.4032325004
 20         -7.4367633760   -3.8188297469    3.3254750310   -1.4032325080
 21         -7.4367632796   -3.8188299846    3.3254748079   -1.4032325082
Atom SCF converged after  21 iterations to a total energy of     -7.43676328

Determining parallel strategy ...
... using space-filling curve
... NGWF load balancing: max     17;  min     13;  average     14
... Projector load balancing: max     34;  min     25;  average     28
... done
Calculating Ewald energy ...
              Ewald: real-space energy =   36397.152486
        Ewald: reciprocal-space energy =   36899.631129
         Ewald: (sum_charge)**2 Energy =    2939.695857
         Ewald: (sum_charge**2) Energy =     257.375876
                          Ewald Energy =   70099.711882
======================= Empirical dispersion information =======================
Model : Grimme D2
Dispersion Correction Energy: -0.24895012E+01 Hartree
================================================================================
Basis initialisation ...... NGWF spheres initialised
... Projector spheres initialised
... NGWF tight boxes initialised
... Projector tight boxes initialised
... Tight-boxes gathered
... NGWF basis size (local,global):     286910  46062340
... PAW projector initialisation
... done

============================= Charge Augmentation ==============================
                           Aug box size:   13 x  13 x  13
================================================================================

========================== Sparse matrix information ===========================
                        Overlap matrix filling:  35.89%
                        Density kernel filling: 100.00%
              NGWF-Proj overlap matrix filling:  10.13%
                    Aug Overlap matrix filling:  40.86%
                    Hamiltonian matrix filling:  40.86%
                  NGWF diagonal matrix filling:   0.17%
                             KS matrix filling: 100.00% 
                           KSKS matrix filling: 100.00% 
================================================================================

Sparse matrix initialisation ... done
NGWF initialisation ...... done
============ Calculation of NGWF S^-1 using Hotelling algorithm ================ 
         Iteration  |  Frobenius norm and Maximum abs value    (of I-S*S_n^-1)   
               1       0.47473223E+02     0.99667549E+00
               2       0.47173592E+02     0.99337207E+00
               3       0.46623120E+02     0.98682641E+00
               4       0.45681573E+02     0.97396612E+00
               5       0.44237733E+02     0.94907817E+00
               6       0.42285873E+02     0.90210259E+00
               7       0.39874389E+02     0.81692734E+00
               8       0.37036674E+02     0.79035707E+00
               9       0.33951222E+02     0.76905830E+00
              10       0.30912791E+02     0.75001191E+00
              11       0.27758898E+02     0.73309827E+00
              12       0.23850290E+02     0.70332335E+00
              13       0.18771372E+02     0.66678727E+00
              14       0.12777596E+02     0.61180221E+00
              15       0.72883414E+01     0.52162449E+00
              16       0.40022828E+01     0.41508517E+00
              17       0.25176395E+01     0.32329758E+00
              18       0.14861948E+01     0.20165712E+00
              19       0.65014324E+00     0.84003832E-01
              20       0.16952241E+00     0.27213401E-01
              21       0.15950676E-01     0.28710505E-02
              22       0.16931627E-03     0.32021791E-04
              23       0.20256904E-07     0.39840904E-08
              24       0.75702875E-13     0.71054274E-14
================================================================================
Calculating core density ...
================================= Core Density =================================
               Core den box size:   21 x  21 x  21
================================================================================
 ... done
Up spin density kernel initialisation ...... done
Down spin density kernel initialisation ...... done

Writing density kernel to file "48/592nano.dkn" ... done

>>> Optimising kernel for current NGWFs:

--------------------------- Ensemble-DFT optimisation --------------------------
Running ScaLAPACK on  160 processor(s).
(P)DSYGVX in subroutine dense_eigensolve returned info=    2
 ifail=           0           0
 iclustr=          12          33
 gap=  2.208503628058820E-005  9.210394720664729E-005
(P)DSYGVX in subroutine dense_eigensolve returned info=    2
 ifail=           0           0
 iclustr=          12          33
 gap=  2.208503628058684E-005  9.210394720664162E-005

--------------------------------------------------------------------------------
  Iter                              Commutator    Free_energy(A=E-TS)     DeltaA
#    0                          0.001309650868   -3179.41421009971782  -3.18E+03

Step                       =       0.381966011250
Energy                     =   -3179.377259647308
Entropy (-TS)              =      -0.036950452300
Free energy (A=E-TS)       =   -3179.414210099718
Est. 0K Energy 0.5*(E+A)   =   -3179.395734873513
Residual Non-orthogonality =       0.000000000000
Residual N_electrons       =      -0.000000000110

Spin          Integrated_Ne            Fermi_level     Delta_Fermi_level
   1      1093.999999999757        -0.225792797735             -2.26E-01
   2      1093.999999999757        -0.225792797735             -2.26E-01

                           Spin 1           |                 Spin 2           |
     Orb |    H-eigenvalues     Occupancies |    H-eigenvalues     Occupancies |
       1 |    -1.9011742261    1.0000000000 |    -1.9011742261    1.0000000000 | 
                          ------                             ------
    1090 |    -0.2358377031    0.9597641954 |    -0.2358377031    0.9597641954 | 
    1091 |    -0.2302433351    0.8030344235 |    -0.2302433351    0.8030344235 | 
    1092 |    -0.2291539706    0.7429531227 |    -0.2291539706    0.7429531227 | 
    1093 |    -0.2286176706    0.7093077493 |    -0.2286176706    0.7093077493 | 
    1094 |    -0.2275036417    0.6318686671 |    -0.2275036417    0.6318686671 | 
                 - Gap at zero temperature - |     - Gap at zero temperature -
    1095 |    -0.2239295830    0.3570119893 |    -0.2239295830    0.3570119893 | 
    1096 |    -0.2235016692    0.3266268624 |    -0.2235016692    0.3266268624 | 
    1097 |    -0.2203577326    0.1523537973 |    -0.2203577326    0.1523537973 | 
    1098 |    -0.2192259176    0.1116837292 |    -0.2192259176    0.1116837292 | 
    1099 |    -0.2176757861    0.0715480313 |    -0.2176757861    0.0715480313 | 
                          ------                             ------
    2284 |     0.5558394709    0.0000000000 |     0.5558394709    0.0000000000 | 

                       |  Abs_value |  Threshold | Converged
     Delta_Free_energy |   3.18E+03 |   1.00E-06 |        No
     Delta_Energy      |   3.18E+03 |   1.00E-04 |        No
     Delta_Entropy     |   3.70E-02 |   1.00E-04 |        No
     Commutator        |   1.31E-03 |   1.00E-05 |        No
     Delta_Fermi_level |   2.26E-01 |   1.00E-03 |        No

  Line search of the free energy minimum:
  Step_type        Step             Free_energy   Predicted_free_energy
.   Initial    0.000000    -3179.41421009971782
.    Trial1    0.381966    -3177.09255220136993
.    Trial2    0.145898    -3180.36848591981243
. Quadratic    0.134129    -3180.35882335750966    -3180.37588967387774
[...]
 C   249 -- C   353       -0.08      0.00      5.44083
 C    10 -- C   458       -0.08     -0.00      5.44087
 C    19 -- C   451       -0.08      0.00      5.44091
 C   182 -- C   220       -0.08     -0.00      5.44093
 C   214 -- C   276       -0.09      0.00      5.44108
 C     2 -- C   348       -0.08      0.00      5.44127
 C    51 -- C   521       -0.07      0.00      5.44265
 C    96 -- C   567       -0.07      0.00      5.44281
 H   156 -- Li  620       -0.02      0.00      5.44333
 C   217 -- C   223       -0.08      0.00      5.44362
 C   323 -- C   385       -0.08     -0.00      5.44376
 C   409 -- C   485       -0.07      0.00      5.44419
 C    37 -- C   508       -0.06      0.00      5.44429
 C    72 -- C   560       -0.08     -0.00      5.44438
 C   413 -- C   441       -0.07      0.00      5.44438
 C   434 -- C   448       -0.08      0.00      5.44467
 C   368 -- C   394       -0.07      0.00      5.44485
 C     2 -- C   270       -0.08      0.00      5.44619
 C   417 -- C   423       -0.06      0.00      5.44624
 C   352 -- C   378       -0.08      0.00      5.44632
 C    83 -- C    85       -0.07      0.00      5.44778
 C    87 -- C    93       -0.08      0.00      5.44783
 C    44 -- C    58       -0.08      0.00      5.44856
 C   201 -- C   239       -0.07      0.00      5.44859
 H   398 -- Li  621       -0.02     -0.00      5.44887
 C   481 -- C   489       -0.07      0.00      5.44919
 C   199 -- C   241       -0.07      0.00      5.44947
 C   181 -- C   183       -0.08     -0.00      5.44958
 H   530 -- Li  637       -0.03     -0.00      5.44988
 C    34 -- C    52       -0.08     -0.00      5.45004
 C   182 -- C   188       -0.08      0.00      5.45035
 C    34 -- C   100       -0.08      0.00      5.45075
 C    21 -- C    63       -0.07      0.00      5.45078
 C   466 -- C   476       -0.07      0.00      5.45106
 C   466 -- Li  600       -0.05      0.00      5.45147
 C   253 -- C   413       -0.08     -0.00      5.45189
 C    17 -- C   281       -0.07      0.00      5.45250
 C   442 -- C   456       -0.08      0.00      5.45268
 C   261 -- C   263       -0.08      0.00      5.45489
 C   230 -- C   318       -0.07      0.00      5.45558
 C   258 -- C   288       -0.08      0.00      5.45573
 C   445 -- C   467       -0.07      0.00      5.45685
 H   561 -- Li  618       -0.03     -0.00      5.45685
 C    69 -- Li  640       -0.08     -0.00      5.45723
 C   197 -- C   295       -0.07     -0.00      5.45736
 C   437 -- C   443       -0.08      0.00      5.45767
 H   548 -- Li  596       -0.03     -0.00      5.45915
 C   197 -- C   199       -0.08      0.00      5.45932
 C   343 -- C   365       -0.08      0.00      5.46034
 C   406 -- C   440       -0.07      0.00      5.46168
 C   466 -- C   538       -0.08      0.00      5.46187
 H   590 -- Li  599       -0.02      0.00      5.46270
 C    71 -- C    93       -0.08      0.00      5.46352
 H   165 -- Li  594       -0.03     -0.00      5.46398
 C   318 -- C   380       -0.07      0.00      5.46501
 C   212 -- C   230       -0.07     -0.00      5.46642
 C   252 -- C   406       -0.08      0.00      5.46763
 C   231 -- C   323       -0.07      0.00      5.46768
 H   151 -- Li  595       -0.03     -0.00      5.46774
 C    83 -- C   467       -0.07      0.00      5.46795
 C    39 -- C   506       -0.06      0.00      5.46948
 H   584 -- Li  602       -0.03      0.00      5.47044
 C    34 -- Li  627       -0.06      0.00      5.47096
 C   338 -- C   380       -0.06      0.00      5.47170
 C   256 -- C   290       -0.08      0.00      5.47191
 C    76 -- C   564       -0.06      0.00      5.48239
 C   423 -- C   489       -0.06      0.00      5.48257
 H   577 -- Li  618       -0.02      0.00      5.48312
 C    55 -- C   525       -0.07      0.00      5.48346
 C   423 -- Li  624       -0.05      0.00      5.48655
 H   587 -- Li  604       -0.02      0.00      5.48712
 C   261 -- C   427       -0.07      0.00      5.48905
 H   146 -- Li  603       -0.02     -0.00      5.48905
 C   364 -- C   390       -0.06      0.00      5.49025
 C   233 -- C   239       -0.06      0.00      5.49078
 C   445 -- Li  624       -0.05     -0.00      5.49192
 H   592 -- Li  615       -0.02     -0.00      5.49288
 C    80 -- C   538       -0.06      0.00      5.49451
 C    66 -- Li  640       -0.07     -0.00      5.49857
 C   188 -- C   286       -0.05      0.00      5.49920
 C   254 -- C   284       -0.06      0.00      5.50077
 C   231 -- C   241       -0.06      0.00      5.50181
 C   190 -- C   284       -0.06      0.00      5.50187
 C   427 -- C   445       -0.06      0.00      5.50780
 C   252 -- C   286       -0.05      0.00      5.50955
 C   558 -- Li  640       -0.06     -0.00      5.52014
 H   171 -- Li  613       -0.02      0.00      5.52763
 C   414 -- Li  638       -0.06      0.00      5.52844
 Li  605 -- Li  619       -0.15     -0.00      5.52898
 H   535 -- Li  617       -0.02     -0.00      5.53209
 H   474 -- Li  610       -0.03     -0.00      5.53334
 C   128 -- Li  601       -0.05      0.00      5.54238
 C   323 -- Li  608       -0.05      0.00      5.54449
 Li  599 -- Li  617       -0.15     -0.00      5.55422
 H   168 -- Li  598       -0.02      0.00      5.55962
 H   582 -- Li  607       -0.02     -0.00      5.56464
 H   584 -- Li  623       -0.02     -0.00      5.56576
 C    72 -- Li  601       -0.05     -0.00      5.56927
 H   519 -- Li  601       -0.03     -0.00      5.57474
 C   309 -- Li  606       -0.05     -0.00      5.57568
 H   584 -- Li  630       -0.02     -0.00      5.58038
 H   174 -- Li  611       -0.02     -0.00      5.58380
 H   162 -- Li  612       -0.02     -0.00      5.59764
 H   129 -- Li  619       -0.02      0.00      5.59875
 Li  601 -- Li  628       -0.11     -0.00      5.60001
 H   402 -- Li  613       -0.02     -0.00      5.61339
 H   539 -- Li  617       -0.02     -0.00      5.61554
 H   589 -- Li  622       -0.02      0.00      5.62532
 C   423 -- Li  638       -0.05     -0.00      5.62925
 Li  625 -- Li  636       -0.13     -0.00      5.63418
 H   530 -- Li  617       -0.02      0.00      5.63619
 C   169 -- Li  598       -0.05      0.00      5.63918
 C   330 -- Li  620       -0.05      0.00      5.64759
 H   154 -- Li  607       -0.01      0.00      5.64995
 H   585 -- Li  625        0.01     -0.00      5.65132
 C   362 -- Li  629       -0.06      0.00      5.65597
 C   210 -- Li  603       -0.06      0.00      5.66463
 C   379 -- Li  615       -0.05     -0.00      5.66744
=============================================================


============== Orbital energy and occupancy information for spin 1 =============

      Total number of orbitals:    2284
        Occupancy sum (kernel):    1094.000000075
   Occupancy sum (eigenvalues):    1094.000000075
                 HOMO-LUMO gap:       0.000487199 Eh
                 Mid-gap level:      -0.075703223 Eh

                        Orbital | Energy (Eh) | Occupancy
                            1    -1.843552421   1.0000000
                        .......   ...........   .........
                         1085    -0.096491164   0.9975758
                         1086    -0.094829438   0.9958718
                         1087    -0.094131211   0.9948926
                         1088    -0.092935305   0.9925165
                         1089    -0.091091187   0.9869585
                         1090    -0.090256889   0.9828123
                         1091    -0.078318400   0.5651927
                         1092    -0.077703553   0.5180088
                         1093    -0.076897220   0.4531951
                         1094    -0.075946822   0.3841765
                        ....... -- gap at 0K -- .........
                         1095    -0.075459623   0.3450293
                         1096    -0.074826893   0.3023627
                         1097    -0.074333624   0.2713797
                         1098    -0.073389472   0.2148471
                         1099    -0.072749888   0.1835961
                         1100    -0.072263784   0.1618986
                         1101    -0.071726549   0.1401069
                         1102    -0.071258541   0.1215371
                         1103    -0.071031692   0.1153318
                         1104    -0.069964042   0.0847181
                        .......   ...........   .........
                         2284     0.770266367   0.0000000

================================================================================

============== Orbital energy and occupancy information for spin 2 =============

      Total number of orbitals:    2284
        Occupancy sum (kernel):    1093.999999925
   Occupancy sum (eigenvalues):    1093.999999925
                 HOMO-LUMO gap:       0.000487198 Eh
                 Mid-gap level:      -0.075703223 Eh

                        Orbital | Energy (Eh) | Occupancy
                            1    -1.843552421   1.0000000
                        .......   ...........   .........
                         1085    -0.096491164   0.9975758
                         1086    -0.094829439   0.9958718
                         1087    -0.094131212   0.9948926
                         1088    -0.092935305   0.9925165
                         1089    -0.091091187   0.9869585
                         1090    -0.090256889   0.9828123
                         1091    -0.078318400   0.5651926
                         1092    -0.077703552   0.5180088
                         1093    -0.076897220   0.4531951
                         1094    -0.075946822   0.3841765
                        ....... -- gap at 0K -- .........
                         1095    -0.075459624   0.3450293
                         1096    -0.074826893   0.3023627
                         1097    -0.074333624   0.2713797
                         1098    -0.073389472   0.2148471
                         1099    -0.072749888   0.1835961
                         1100    -0.072263784   0.1618986
                         1101    -0.071726549   0.1401069
                         1102    -0.071258541   0.1215371
                         1103    -0.071031692   0.1153318
                         1104    -0.069964041   0.0847181
                        .......   ...........   .........
                         2284     0.770266367   0.0000000

================================================================================

===================== Writing canonical molecular orbitals =====================
    Spin 1
| Orbital  Energy (eV)  Norm     |
| HOMO     -2.06661818  1.000000 | Writing "48/592nano_HOMO_UP.cube" ... done
Writing "48/592nano_HOMO_UP.dx" ... done
| LUMO     -2.05336083  1.000000 | Writing "48/592nano_LUMO_UP.cube" ... done
Writing "48/592nano_LUMO_UP.dx" ... done
================================================================================

===================== Writing canonical molecular orbitals =====================
    Spin 2
| Orbital  Energy (eV)  Norm     |
| HOMO     -2.06661817  1.000000 | Writing "48/592nano_HOMO_DN.cube" ... done
Writing "48/592nano_HOMO_DN.dx" ... done
| LUMO     -2.05336084  1.000000 | Writing "48/592nano_LUMO_DN.cube" ... done
Writing "48/592nano_LUMO_DN.dx" ... done
================================================================================

================== Local Density of States (LDOS) calculation ==================
Writing "48/592nano_UP_LDOS.txt" ...  done
================================================================================

================== Local Density of States (LDOS) calculation ==================
Writing "48/592nano_DN_LDOS.txt" ...  done
================================================================================
 
=============== Density of States (DOS) calculation for UP spin ================
Writing "48/592nano_UP_DOS.txt" ...  done
================================================================================
 
============== Density of States (DOS) calculation for DOWN spin ===============
Writing "48/592nano_DN_DOS.txt" ...  done
================================================================================
 
Writing bands to file "48/592nano.val_bands" ... done
 
================ Projected Density of States (pDOS) calculation ================
 
Constructing AM resolved functions  ...... done
Writing NGWF plot files in formats: CUBE DX ...  done
 
Performing overlap integrals ...  done
 
Computing pDOS weights ...  done
 
All bands spilling parameter =   3.18 %
Occupancy-weighted spilling parameter =   0.83 %
 
 => Outputting data for OptaDOS <=
 
Writing pDOS weights to file "48/592nano.val_pdos_bin" ... done
 
Writing band gradients to file "48/592nano.val_dome_bin" ... done
 
Writing Castep output cell file to "48/592nano-out.cell" ... done
 
 => Computing Gaussian smeared pDOS for UP spin<= 
Writing "48/592nano_UP_PDOS.txt" ...  done
 
 => Computing Gaussian smeared pDOS for DOWN spin<= 
Writing "48/592nano_DN_PDOS.txt" ...  done
 
 => Computing Occupancy-weighted Gaussian smeared pDOS for UP spin<= 
Writing "48/592nano_occ_UP_PDOS.txt" ...  done
  => Band centres for UP spin channel: 
 S band centre of group 1:  -19.484189 eV
 P band centre of group 1:   -8.375072 eV
  Band centres for UP spin channel done. <= 
  => Integrated number of electrons in each AM band for UP spin channel: 
 S num electrons of group 1:  312.607014
 P num electrons of group 1:  772.360615
  Integrated number of electrons for UP spin channel done. <= 
 
 => Computing Occupancy-weighted Gaussian smeared pDOS for DOWN spin<= 
Writing "48/592nano_occ_DN_PDOS.txt" ...  done
  => Band centres for DOWN spin channel: 
 S band centre of group 1:  -19.484189 eV
 P band centre of group 1:   -8.375072 eV
  Band centres for DOWN spin channel done. <=
  => Integrated number of electrons in each AM band for DOWN spin channel: 
 S num electrons of group 1:  312.607014
 P num electrons of group 1:  772.360615
  Integrated number of electrons for DOWN spin channel done. <=
================================================================================

------------------------------ TIMING INFORMATION ------------------------------
AVERAGE TIME:   18882.542s on    160 node(s)                                    
TOTAL TIME:     18882.576s on    160 node(s)                                    
================= AVERAGE TIMINGS FROM ALL NODES (CUMULATIVE) ==================
|| TAG                                    #calls    cpu time   %total  Gflops ||
|| work_imbalance                       :     1        0.00s   0.000%  ------ ||
|| paw_tcore_density                    :     1        0.01s   0.000%  ------ ||
|| sparse_set_to_garbage                :   201        0.01s   0.000%  ------ ||
|| paw_sphere_density_on_grid           :     1        0.01s   0.000%  ------ ||
|| basis_extract_function_from_box      :   342        0.02s   0.000%  ------ ||
|| paw_dij_hartree                      :  1049        0.04s   0.000%  ------ ||
|| ngwfs_initialise_from_radial         :     2        0.04s   0.000%  ------ ||
|| ewald_calculate_energy               :     1        0.11s   0.001%  ------ ||
|| density_init_guess_real              :     1        0.25s   0.001%  ------ ||
|| paw_dataset_init                     :     3        0.33s   0.002%  ------ ||
|| paw_tcore_hartree_on_grid            :     1        0.37s   0.002%  ------ ||
|| pseudo_make_structure_factor         :     1        0.54s   0.003%  ------ ||
|| sparse_init                          :     1        0.99s   0.005%  ------ ||
|| dense_normal_eigensolve              :     1        1.19s   0.006%  ------ ||
|| paw_species_calc_proj_prec_mat       :     1        2.16s   0.011%  ------ ||
|| restart_kernel_write                 :    13        2.19s   0.012%  ------ ||
|| sparse_embed_hotelling_invert_embed  :    23        5.68s   0.030%  ------ ||
|| sw_init                              :     1        7.52s   0.040%  ------ ||
|| ngwf_gradient_coeffs                 :    12        8.84s   0.047%  ------ ||
|| fourier_apply_box_pair               :   854       10.03s   0.053%  2.251k ||
|| augmentation_screen_dij              :   788       15.49s   0.082%  ------ ||
|| projectors_init_fftbox_recip         :    73       26.69s   0.141%  ------ ||
|| integrals_kinetic                    :    23       34.01s   0.180%  ------ ||
|| function_ops_brappd_ketppd           :    48       35.50s   0.188%  ------ ||
|| projectors_func_ovlp_box             :    24       37.58s   0.199%  ------ ||
|| hartree_on_grid                      :   783       39.44s   0.209%  ------ ||
|| basis_copy_function_to_box           : 30362       39.96s   0.212%  ------ ||
|| paw_dij_xc                           :  1049       48.03s   0.254%  ------ ||
|| hamiltonian_energy_components        :     3       84.20s   0.446%  ------ ||
|| eigenstates_pdos                     :     1      111.55s   0.591%  ------ ||
|| sparse_trace                         : 19664      127.06s   0.673%  ------ ||
|| augmentation_density_on_grid         :   783      129.90s   0.688%  ------ ||
|| fourier_apply_cell_forward           :  7039      141.30s   0.748% 173.392 ||
|| fourier_apply_cell_backward          :  7040      143.85s   0.762% 170.344 ||
|| aug_nonlocal_mat                     :  1037      149.27s   0.791%  ------ ||
|| basis_dot_function_with_box          : 6.411M     177.32s   0.939%  ------ ||
|| restart_ngwfs_tightbox_output        :    11      197.12s   1.044%  ------ ||
|| eigenstates_calculate                :     1      224.72s   1.190%  ------ ||
|| xc_energy_potential                  :   782      291.12s   1.542%  ------ ||
|| sparse_product                       : 16763      482.13s   2.553%  ------ ||
|| dense_eigensolve                     :  1512      510.73s   2.705%  ------ ||
|| projectors_gradient_batch            :    24      540.27s   2.861%  ------ ||
|| basis_add_function_to_box            : 19.45M     638.76s   3.383%  ------ ||
|| cell_grid_extract_box_real           : 17722      673.25s   3.565%  ------ ||
|| cell_grid_deposit_box_real           : 58035      760.89s   4.030%  ------ ||
|| projectors_grad_precond_batch        :    24      763.30s   4.042%  ------ ||
|| integrals_locpot_mat_els_batch       :  1046     1035.81s   5.486%  ------ ||
|| ngwf_gradient_build_batch            :    24     1450.52s   7.682%  ------ ||
|| density_fftbox_deposit_to_cell       : 26622     1456.28s   7.712%  ------ ||
|| properties_calculate                 :     1     1575.36s   8.343%  ------ ||
|| ngwf_gradient_batch                  :    24     1589.50s   8.418%  ------ ||
|| density_batch_row_sums               :  1566     1744.13s   9.237%  ------ ||
|| edft_diag_ngwf_ham                   :  1510     1875.30s   9.931%  ------ ||
|| potential_apply_to_ngwf_batch        :  1046     1933.47s  10.239%  ------ ||
|| fourier_apply_box                    : 95443     2176.32s  11.526%  3.825k ||
|| ngwf_gradient_lnv                    :    12     2270.41s  12.024%  ------ ||
|| density_fftbox_interpolate_multiply  : 26622     2534.83s  13.424%  ------ ||
|| integrals_locpot_dbl_grid            :   523     2982.33s  15.794%  ------ ||
|| edft_apply_smearing_operator         :   755     3174.59s  16.812%  ------ ||
|| density_batch_interp_deposit         :  1566     4810.82s  25.478%  ------ ||
|| density_on_dbl_grid                  :   783     6959.88s  36.859%  ------ ||
|| hamiltonian_lhxc_calculate           :   778     7835.71s  41.497%  ------ ||
|| edft_calculate                       :    12    14332.51s  75.904%  ------ ||
|| ngwf_cg_optimise                     :     1    17285.02s  91.540%  ------ ||
|| total_time                           :     1    18882.54s 100.000%  ------ ||
================================================================================
Overhead of generating timer report: 
- 0 ms averaging over threads,
- 25 ms ensuring consistency across MPI ranks,
- 0 ms printing in order.

Job completed: 19-10-2020 13:50 (+0100)

