 +---------------------------------------------------------------+
 |                                                               |
 |        ####### #     # ####### ####### ####### ######         |
 |        #     # ##    # #          #    #       #     #        |
 |        #     # # #   # #          #    #       #     #        |
 |        #     # #  #  # #####      #    #####   ######         |
 |        #     # #   # # #          #    #       #              |
 |        #     # #    ## #          #    #       #              |
 |        ####### #     # #######    #    ####### #              |
 |                                                               |
 |        Linear-Scaling Ab Initio Total Energy Program          |
 |                                                               |
 |          Release for academic collaborators of ODG            |
 |                                             Version 5.3.2.12  |
 |                                                               |
 +---------------------------------------------------------------+
 |                                                               |
 |  Authors:                                                     |
 |  Jacek Dziedzic, Peter D. Haynes, Nicholas D. M. Hine,        |
 |  Arash. A. Mostofi, Mike C. Payne and Chris-Kriton Skylaris   |
 |                                                               |
 |  Contributors:                                                |
 |  J. Aarons, L. Andrinopoulos, P. W. Avraam, R. A. Bell,       |
 |  A. Bhandari, G. A. Bramley, R. J. Charlton, S. J. Clark,     |
 |  R. J. Clements, G. C. Constantinescu, F. Corsetti,           |
 |  N. Corsini, O. Dieguez, S. M. M. Dubois, K. K. B. Duff,      |
 |  J. M. Escartin, A. Greco, H. Helal, Q. O. Hill, L. P. Lee,   |
 |  J.-H. Li, E. B. Linscott, G. Moynihan, D. D. O`Regan,        |
 |  O. K. Okan, M. J. S. Phipps, C. J. Pickard,                  |
 |  J. C. A. Prentice, M. I. J. Probert, L. E. Ratcliff,         |
 |  M. Robinson, A. Ruiz Serrano, J. S. Spencer, E. W. Tait,     |
 |  G. Teobaldi, D. Turban, V. Vitale, K. A. Wilkinson,          |
 |  C. Weber, J. C. Womack, N. Yeung and T. J. Zuehlsdorff       |
 |                                                               |
 |                                   Copyright (c) 2004-2020     |
 |                                                               |
 |  Please cite:                                                 |
 |  "Introducing ONETEP: Linear-scaling density functional       |
 |   simulations on parallel computers".                         |
 |   C.-K. Skylaris, P. D. Haynes, A. A. Mostofi, M. C. Payne.   |
 |   J. Chem. Phys. 122 084119 (2005).                           |
 |                                                               |
 |          in all publications arising from your use of ONETEP. |
 |                                                               |
 +---------------------------------------------------------------+
 |                                                               |
 |   ONETEP is based on developments described in the following  |
 |   publications:                                               |
 |                                                               |
 |  "Nonorthogonal generalized Wannier function pseudopotential  |
 |   plane-wave method".                                         |
 |   C.-K. Skylaris, A. A. Mostofi, P. D. Haynes, O. Dieguez,    |
 |   M. C. Payne.                                                |
 |   Phys. Rev. B 66 035119 (2002).                              |
 |                                                               |
 |  "Preconditioned iterative minimization for linear-scaling    |
 |   electronic structure calculations".                         |
 |   A. A. Mostofi, P. D. Haynes, C.-K. Skylaris, M. C. Payne.   |
 |   J. Chem. Phys. 119(17), pp.8842-8848 (2003).                |
 |                                                               |
 |  "Total-energy calculations on a real space grid with         |
 |   localized functions and a plane-wave basis".                |
 |   A. A. Mostofi, C.-K. Skylaris, P. D. Haynes, M. C. Payne.   |
 |   Comput. Phys. Commun. 147, pp.788-802 (2002).               |
 |                                                               |
 |  "Accurate kinetic energy evaluation in electronic structure  |
 |   calculations with localized functions on real space grids"  |
 |   C.-K. Skylaris, A. A. Mostofi, P. D. Haynes, C. J. Pickard, |
 |   M. C. Payne.                                                |
 |   Comput. Phys. Commun. 140, pp.315-322 (2001).               |
 |                                                               |
 |  "Accurate ionic forces and geometry optimization in linear-  |
 |   scaling density-functional theory with local orbitals"      |
 |   N. D. M. Hine, M. Robinson, P. D. Haynes, C.-K. Skylaris,   |
 |   M. C. Payne, and A. A. Mostofi.                             |
 |   Phys. Rev. B 83 195102 (2011).                              |
 |                                                               |
 +---------------------------------------------------------------+

Job started: 24-08-2020 05:40 (+0100)
 
Reading parameters from file "10/592nano.dat" ...... done

If your calculation crashes here, before "Checking processes and threads..."
is displayed, then your stack size is insufficient.
If so, use "ulimit -s unlimited" at runtime.
You can disable this check with "check_stack_size F".

Checking processes and threads...
   Determining the default number of threads...
      No default threads set at compilation time: defaulting to 1.
      OpenMP library call suggests 4 threads.
      Hybrid MPI-OpenMP compilation detected.
      Number of MPI processes > 1.
      OMP_NUM_THREADS environment variable present and
      its value matches the one obtained from the OpenMP library call.
      Using this value as default.
      Default threads: 4
      Default applies to threads_max and threads_num_fftboxes.
      Settings in the input file override this default.
   ... done

   Running with 160 MPI processes.
   There are 10 MPI processes running on the same node as the root process.
   Each MPI process is using: 
               1 threads for simulation cell FFTs.
               1 threads for parallel FFT box operations.
               4 threads for loops over batched FFT box operations.
               4 threads in other parallel regions.
... done

Basic input checks...
Resetting ngwf_cg_rotate to TRUE for EDFT calculations
... done

Reading geometry and species blocks from file "10/592nano.dat" ...    
  Number of PPD points along a3 set to 1.  This is 
  the default value, it may have been provided also in the input file.
... done
 Writing xyz coordinates to file "10/592nano.xyz" ... done


--------------------------------------------------------------------------------
---------------------------------- INPUT FILE ----------------------------------
--------------------------------------------------------------------------------

task : singlepoint                                                              
do_properties : true                                                            
ddec_classical_hirshfeld T                                                      
dx_format T                                                                     
edft T                                                                          
edft_spin_fix 3                                                                 
output_detail VERBOSE                                                           
write_xyz T                                                                     
dispersion 4                                                                    
xc_functional PBE                                                               
cutoff_energy 830 eV                                                            
paw T                                                                           
geom_disp_tol 0.015 bohr                                                        
geom_energy_tol 1.5E-6 hartree                                                  
geom_force_tol 0.003 "ha/bohr"                                                  
EDFT_MAXIT 30                                                                   
pdos_max_l = 2                                                                  
dos_smear  0.1 eV                                                               
popn_calculate T                                                                
PDOS_PSEUDOATOMIC T                                                             
PDOS_REDUCE_SWS F                                                               
PDOS_CONSTRUCT_BASIS F                                                          
PDOS_LOWDIN T                                                                   
PDOS_ORTH_ATOM_BLOCKS F                                                         
PDOS_LCAO_OPTIMIZE F                                                            
pdos_optados_output T                                                           
homo_plot 0                                                                     
lumo_plot 0                                                                     
homo_dens_plot -1                                                               
lumo_dens_plot -1                                                               
%BLOCK SPECIES                                                                  
C C 6 4 9.0                                                                     
H H 1 1 9.0                                                                     
Li Li 3 5 9.0                                                                   
%ENDBLOCK SPECIES                                                               
%BLOCK SPECIES_POT                                                              
C "~/pp/paw/c_pbe_abinit.paw"                                                   
H "~/pp/paw/h_pbe_abinit.paw"                                                   
Li "~/pp/paw/li_pbe_abinit.paw"                                                 
%ENDBLOCK SPECIES_POT                                                           
%BLOCK SPECIES_ATOMIC_SET                                                       
C "SOLVE conf=2s2 2p2"                                                          
H "SOLVE conf=1s1"                                                              
Li "SOLVE conf=1s2 2s1 2p0"                                                     
%ENDBLOCK SPECIES_ATOMIC_SET                                                    
%BLOCK SPECIES_LDOS_GROUPS                                                      
C                                                                               
H                                                                               
Li                                                                              
%ENDBLOCK SPECIES_LDOS_GROUPS                                                   
%BLOCK LATTICE_CART                                                             
94.486315650000      0.000000000000       0.000000000000                        
0.000000000000       94.486315650000      0.000000000000                        
0.000000000000       0.000000000000       94.486315650000                       
%ENDBLOCK LATTICE_CART                                                          
%BLOCK POSITIONS_ABS                                                            
C 45.463803 50.734834 30.783152                                                 
C 45.457605 50.624964 36.844294                                                 
C 46.802904 53.064894 30.748386                                                 
C 48.146076 50.622282 36.835322                                                 
C 49.504154 48.412418 30.759181                                                 
C 49.488221 48.291510 36.823136                                                 
C 50.843847 50.743292 30.734791                                                 
C 52.177555 48.286914 36.794996                                                 
C 45.451873 55.387992 30.691088                                                 
C 45.462014 55.277828 36.862110                                                 
C 46.793989 57.720511 30.557413                                                 
C 48.150881 55.274691 36.856603                                                 
C 49.495705 53.068311 30.716965                                                 
C 49.492032 52.945896 36.837379                                                 
C 50.837142 55.398562 30.591969                                                 
C 52.185300 52.939692 36.820193                                                 
C 45.443421 50.497533 42.960349                                                 
C 45.384760 50.415485 49.034185                                                 
C 46.787784 52.824066 42.975975                                                 
C 48.071697 50.417896 49.074739                                                 
C 49.470975 48.169000 42.962714                                                 
C 49.417084 48.088487 49.111644                                                 
C 50.815515 50.495929 42.969292                                                 
C 52.105646 48.091972 49.224267                                                 
C 45.443544 55.152043 43.002120                                                 
C 45.374828 55.072983 49.087822                                                 
C 46.788792 57.481428 43.029629                                                 
C 48.062765 55.076524 49.121851                                                 
C 49.474039 52.824206 42.983559                                                 
C 49.411410 52.749848 49.116625                                                 
C 50.818686 55.155758 43.021322                                                 
C 52.100415 52.755088 49.217644                                                 
C 57.579719 48.412361 30.636584                                                 
C 57.552520 48.264160 36.686936                                                 
C 58.920348 50.736529 30.571240                                                 
C 60.269591 48.258991 36.615185                                                 
C 57.530781 48.164350 42.764326                                                 
C 57.468803 48.090689 49.655781                                                 
C 58.880713 50.488378 42.702462                                                 
C 60.183924 48.097558 49.933387                                                 
C 53.535978 50.743263 30.681738                                                 
C 53.524982 50.610342 36.784928                                                 
C 54.875752 53.067943 30.576099                                                 
C 56.219596 50.600479 36.739413                                                 
C 53.504653 50.495750 42.953263                                                 
C 53.445476 50.424473 49.296641                                                 
C 54.845034 52.823564 42.980606                                                 
C 56.129718 50.428154 49.517574                                                 
C 57.588912 43.765995 30.636175                                                 
C 57.538653 43.605869 36.675290                                                 
C 58.923087 46.080045 30.621400                                                 
C 60.252575 43.614742 36.602504                                                 
C 57.525650 43.501372 42.712925                                                 
C 57.457146 43.407799 49.691945                                                 
C 58.873003 45.826254 42.637571                                                 
C 60.158133 43.421014 50.036740                                                 
C 53.545484 46.088777 30.700501                                                 
C 53.515071 45.954581 36.771524                                                 
C 54.884190 48.414362 30.680910                                                 
C 56.208690 45.947198 36.711898                                                 
C 53.497410 45.834124 42.911273                                                 
C 53.444217 45.760065 49.314425                                                 
C 54.845867 48.164116 42.892623                                                 
C 56.130965 45.763998 49.541231                                                 
C 57.570444 57.692250 30.108126                                                 
C 57.574620 57.574274 37.026531                                                 
C 58.906609 60.039616 29.762079                                                 
C 60.304725 57.537040 37.045052                                                 
C 57.544565 57.482126 43.113504                                                 
C 57.459499 57.445297 49.467369                                                 
C 58.889388 59.830964 43.237022                                                 
C 60.164927 57.437787 49.598584                                                 
C 45.426890 64.703149 30.169054                                                 
C 45.475733 64.600653 36.919067                                                 
C 46.783766 67.043124 30.126197                                                 
C 48.157600 64.605395 36.966194                                                 
C 49.463836 62.371923 30.079976                                                 
C 49.513663 62.259805 36.999442                                                 
C 50.822485 64.735569 29.779377                                                 
C 52.209936 62.253890 37.111655                                                 
C 45.418955 64.461897 42.886797                                                 
C 45.342688 64.368698 49.714157                                                 
C 46.800748 66.802369 42.651154                                                 
C 48.032390 64.375593 49.739555                                                 
C 49.474788 62.143560 43.041528                                                 
C 49.395495 62.058624 49.493321                                                 
C 50.848964 64.498603 43.035939                                                 
C 52.080220 62.076184 49.473904                                                 
C 53.524340 60.040556 30.120167                                                 
C 53.540183 59.917895 37.045289                                                 
C 54.878004 62.399040 29.865604                                                 
C 56.239446 59.904859 37.139017                                                 
C 53.512718 59.814911 43.156120                                                 
C 53.427503 59.756495 49.359155                                                 
C 54.871723 62.171376 43.244569                                                 
C 56.117290 59.761840 49.399270                                                 
C 57.574547 53.057431 30.507184                                                 
C 57.567102 52.921962 36.768791                                                 
C 58.916727 55.379600 30.307744                                                 
C 60.292121 52.904848 36.727144                                                 
C 57.538957 52.821822 42.872979                                                 
C 57.459186 52.773800 49.631544                                                 
C 58.885064 55.169565 42.917710                                                 
C 60.168845 52.781032 49.984766                                                 
C 45.442765 60.038553 30.436746                                                 
C 45.466498 59.933013 36.887210                                                 
C 46.783005 62.373120 30.238189                                                 
C 48.160438 59.928783 36.903670                                                 
C 49.486904 57.723678 30.484709                                                 
C 49.500943 57.602055 36.888750                                                 
C 50.824787 60.048547 30.231008                                                 
C 52.192968 57.595306 36.922369                                                 
C 45.440582 59.806676 43.041246                                                 
C 45.359945 59.727238 49.292700                                                 
C 46.790778 62.137582 42.995510                                                 
C 48.049529 59.732895 49.319359                                                 
C 49.475029 57.484553 43.042838                                                 
C 49.401984 57.409165 49.212808                                                 
C 50.822791 59.817539 43.089876                                                 
C 52.087477 57.417274 49.264969                                                 
C 53.526656 55.393703 30.501430                                                 
C 53.533091 55.260396 36.864350                                                 
C 54.866320 57.721926 30.257905                                                 
C 56.227070 55.244473 36.867882                                                 
C 53.504246 55.155733 43.038754                                                 
C 53.435272 55.089536 49.279008                                                 
C 54.852027 57.490134 43.115619                                                 
C 56.126398 55.099183 49.445761                                                 
H 27.312393 41.324416 30.495430                                                 
H 28.292932 39.561669 36.438528                                                 
H 27.295905 41.137271 42.211164                                                 
H 28.220371 39.341063 49.985656                                                 
H 41.833952 30.346544 29.614016                                                 
C 42.870111 32.130523 29.742556                                                 
H 44.469944 30.218002 37.418626                                                 
H 41.736314 30.093300 43.195133                                                 
C 42.788067 31.874399 43.164875                                                 
H 44.378348 29.994499 49.223668                                                 
H 29.667143 37.279252 30.376891                                                 
C 30.676187 39.084436 30.415242                                                 
H 32.321971 37.237150 36.573204                                                 
H 33.713795 34.977913 30.231552                                                 
C 34.741953 36.772356 30.304439                                                 
H 29.624042 37.099244 42.560337                                                 
C 30.652433 38.893899 42.562961                                                 
H 32.266364 36.987467 49.606354                                                 
H 33.665686 34.755989 42.784601                                                 
C 34.701101 36.548178 42.815190                                                 
H 37.761193 32.663427 29.942332                                                 
C 38.789265 34.456084 30.048180                                                 
H 40.404809 32.558681 37.264633                                                 
H 37.709098 32.426188 43.021881                                                 
C 38.743107 34.219662 43.026639                                                 
H 40.351318 32.329849 49.198205                                                 
H 46.518342 30.353178 29.668018                                                 
H 46.418526 30.097776 43.231434                                                 
H 25.940717 48.271233 36.611670                                                 
C 28.011035 48.272233 36.633645                                                 
H 25.868317 48.079322 49.699314                                                 
C 27.935047 48.082746 49.614813                                                 
H 25.942555 43.605207 36.462432                                                 
H 27.298428 45.976556 30.579672                                                 
C 28.010890 43.592865 36.513130                                                 
H 25.882971 43.393605 50.004755                                                 
H 27.282893 45.830768 42.388918                                                 
C 27.947668 43.387033 49.904309                                                 
H 25.930147 57.606857 37.041196                                                 
H 27.243349 59.990886 29.912147                                                 
C 27.998591 57.615038 37.083090                                                 
H 25.840126 57.407007 49.263619                                                 
H 27.275987 59.821148 43.257417                                                 
C 27.908367 57.426574 49.257448                                                 
H 25.931362 52.945784 36.783903                                                 
H 27.247630 55.312028 30.246369                                                 
C 28.001342 52.942395 36.801348                                                 
H 25.858919 52.746518 49.417010                                                 
H 27.281082 55.171932 43.111313                                                 
C 27.927510 52.747209 49.365831                                                 
C 29.379688 41.312142 30.475661                                                 
C 29.304879 41.363017 36.499478                                                 
C 30.662933 43.704149 30.528694                                                 
C 32.017265 41.285661 36.569361                                                 
C 33.389370 39.026579 30.412395                                                 
C 33.357769 39.027350 36.604868                                                 
C 34.725242 41.392563 30.498320                                                 
C 36.033407 38.958395 36.699391                                                 
C 29.367239 45.987987 30.567173                                                 
C 29.299184 45.978615 36.587619                                                 
C 30.638028 48.346216 30.577203                                                 
C 32.017868 45.961322 36.634560                                                 
C 33.380901 43.699281 30.554695                                                 
C 33.357336 43.647468 36.626034                                                 
C 34.709194 46.041092 30.619608                                                 
C 36.048197 43.637180 36.691806                                                 
C 29.357050 41.128680 42.373988                                                 
C 29.247595 41.132419 49.899911                                                 
C 30.645551 43.531509 42.384625                                                 
C 31.964763 41.042397 49.714240                                                 
C 33.356886 38.813255 42.713748                                                 
C 33.303179 38.776922 49.557438                                                 
C 34.693661 41.180744 42.751346                                                 
C 35.971394 38.722765 49.370873                                                 
C 29.346643 45.831827 42.529359                                                 
C 29.228505 45.782585 49.726171                                                 
C 30.625289 48.182715 42.759983                                                 
C 31.957403 45.754702 49.579484                                                 
C 33.362000 43.503264 42.640801                                                 
C 33.303546 43.425303 49.575616                                                 
C 34.691459 45.848124 42.789730                                                 
C 35.991849 43.415322 49.355988                                                 
C 41.452716 39.098866 30.360450                                                 
C 41.417635 38.985189 36.895929                                                 
C 42.800451 41.424090 30.519398                                                 
C 44.101609 38.986000 36.948719                                                 
C 41.401014 38.855751 43.027431                                                 
C 41.356282 38.760631 49.180082                                                 
C 42.750349 41.188609 43.009903                                                 
C 44.038110 38.760566 49.154622                                                 
C 37.417645 41.397757 30.513462                                                 
C 37.388976 41.313508 36.724787                                                 
C 38.758357 43.733826 30.611795                                                 
C 40.075350 41.309204 36.798491                                                 
C 37.380532 41.180407 42.888380                                                 
C 37.325885 41.087936 49.297998                                                 
C 38.723712 43.516329 42.912131                                                 
C 40.009765 41.087063 49.186834                                                 
C 41.430045 34.432181 29.944968                                                 
C 41.437516 34.347185 37.150368                                                 
C 42.813241 36.781876 30.129796                                                 
C 44.078926 34.317462 37.300832                                                 
C 41.373687 34.186337 43.102336                                                 
C 41.387749 34.120611 49.209383                                                 
C 42.748441 36.529216 43.086850                                                 
C 44.013546 34.088406 49.217220                                                 
C 37.411944 36.727019 30.255282                                                 
C 37.396992 36.682159 36.809586                                                 
C 38.767479 39.082848 30.384222                                                 
C 40.045645 36.633487 36.939952                                                 
C 37.363631 36.500448 42.941749                                                 
C 37.339780 36.449877 49.279555                                                 
C 38.718845 38.855257 42.963109                                                 
C 39.992613 36.407156 49.218145                                                 
C 41.433986 48.394901 30.752575                                                 
C 41.425395 48.298189 36.816587                                                 
C 42.773157 50.727366 30.774497                                                 
C 44.112786 48.297831 36.831053                                                 
C 41.412235 48.171624 42.949768                                                 
C 41.354776 48.083900 49.059101                                                 
C 42.756348 50.497842 42.960448                                                 
C 44.042329 48.084851 49.036281                                                 
C 29.315066 55.314409 30.285604                                                 
C 29.287733 55.241710 36.940345                                                 
C 30.597870 57.616094 30.110801                                                 
C 32.003252 55.263831 36.960096                                                 
C 33.339233 53.008669 30.524425                                                 
C 33.350655 52.939158 36.845698                                                 
C 34.679908 55.330602 30.450351                                                 
C 36.048642 52.948760 36.855743                                                 
C 29.349778 55.169516 43.110699                                                 
C 29.209009 55.045078 49.275342                                                 
C 30.634769 57.460832 43.184095                                                 
C 31.927080 55.064218 49.227435                                                 
C 33.346697 52.825078 43.017443                                                 
C 33.274138 52.733697 49.221639                                                 
C 34.687868 55.147732 43.085835                                                 
C 35.969561 52.735576 49.156085                                                 
C 37.388562 50.705666 30.693587                                                 
C 37.391835 50.624083 36.812346                                                 
C 38.726435 53.035985 30.688726                                                 
C 40.082468 50.626862 36.830112                                                 
C 37.381441 50.497011 42.954061                                                 
C 37.318830 50.410522 49.138394                                                 
C 38.724771 52.823007 42.994786                                                 
C 40.007945 50.411485 49.070669                                                 
C 41.447188 43.743867 30.632727                                                 
C 41.423738 43.642934 36.803155                                                 
C 42.786082 46.074298 30.718937                                                 
C 44.108810 43.642111 36.832884                                                 
C 41.409348 43.515584 42.963931                                                 
C 41.356051 43.423988 49.120620                                                 
C 42.754509 45.844171 42.960584                                                 
C 44.042230 43.424920 49.085686                                                 
C 29.339001 50.656324 30.531924                                                 
C 29.291648 50.614196 36.721990                                                 
C 30.610873 52.988516 30.453263                                                 
C 32.010630 50.617586 36.752444                                                 
C 33.359395 48.354375 30.618813                                                 
C 33.354966 48.293547 36.709611                                                 
C 34.691331 50.690823 30.628519                                                 
C 36.049663 48.295293 36.753698                                                 
C 29.341512 50.499139 42.882180                                                 
C 29.218065 50.411036 49.426741                                                 
C 30.628983 52.820128 43.015944                                                 
C 31.937822 50.408789 49.328030                                                 
C 33.347660 48.171541 42.830859                                                 
C 33.290407 48.089887 49.365735                                                 
C 34.686813 50.497322 42.942377                                                 
C 35.980628 48.080868 49.236496                                                 
C 37.405925 46.052890 30.662598                                                 
C 37.392513 45.970758 36.742095                                                 
C 38.742325 48.385127 30.716469                                                 
C 40.081732 45.969626 36.784700                                                 
C 37.382292 45.843125 42.885668                                                 
C 37.326612 45.752630 49.229056                                                 
C 38.723594 48.172721 42.931588                                                 
C 40.013208 45.751418 49.121716                                                 
C 45.473733 32.133659 29.767312                                                 
C 45.510544 31.998798 37.279609                                                 
C 46.903839 34.441119 29.998396                                                 
C 48.092466 32.003758 37.099042                                                 
H 49.131397 30.215467 37.085826                                                 
H 50.568146 32.679080 30.118915                                                 
C 45.504415 36.786990 30.155004                                                 
C 45.462920 36.659751 37.080944                                                 
C 46.851228 39.108849 30.407175                                                 
C 48.139745 36.651640 36.976558                                                 
C 49.533676 34.469123 30.178615                                                 
C 49.513902 34.307524 36.982139                                                 
C 50.908869 36.751688 30.400894                                                 
C 52.145411 34.337369 36.884603                                                 
C 45.366337 31.876250 43.185632                                                 
C 45.433010 31.773327 49.235723                                                 
C 46.790952 34.185189 43.141275                                                 
C 48.010778 31.769234 49.245640                                                 
H 49.052450 29.982586 49.252071                                                 
H 50.446254 32.420314 43.134079                                                 
C 45.420866 36.529202 43.103820                                                 
C 45.390640 36.433278 49.186308                                                 
C 46.779166 38.852956 43.062863                                                 
C 48.062879 36.431840 49.193844                                                 
C 49.416916 34.214257 43.113107                                                 
C 49.434707 34.082767 49.228438                                                 
C 50.818303 36.495263 43.051539                                                 
C 52.063475 34.117061 49.253578                                                 
H 53.176341 32.542991 36.895522                                                 
H 53.097787 32.324770 49.275481                                                 
C 57.597701 39.145065 30.613454                                                 
C 57.540357 38.929573 36.692039                                                 
C 58.935360 41.403581 30.606825                                                 
C 60.250574 38.993426 36.622099                                                 
C 57.514195 38.858586 42.784668                                                 
C 57.461574 38.720637 49.525864                                                 
C 58.864490 41.121979 42.671331                                                 
C 60.158260 38.792401 49.708343                                                 
C 45.476066 46.080297 30.734439                                                 
C 45.454938 45.969961 36.830478                                                 
C 46.814740 48.409270 30.773335                                                 
C 48.142909 45.967434 36.831292                                                 
C 49.516449 43.758000 30.679293                                                 
C 49.484287 43.636318 36.831927                                                 
C 50.854343 46.085705 30.723868                                                 
C 52.170536 43.631538 36.795980                                                 
C 45.439830 45.842659 42.972149                                                 
C 45.386779 45.756187 49.057017                                                 
C 46.785700 48.170362 42.962436                                                 
C 48.074509 45.758554 49.092661                                                 
C 49.468223 43.510274 42.983817                                                 
C 49.417316 43.426871 49.141904                                                 
C 50.812853 45.836139 42.959063                                                 
C 52.101009 43.429086 49.246802                                                 
C 53.559366 41.433119 30.636188                                                 
C 53.512662 41.294141 36.772259                                                 
C 54.896430 43.756598 30.665466                                                 
C 56.201374 41.293568 36.712342                                                 
C 53.495245 41.171633 42.924907                                                 
C 53.440200 41.087147 49.308975                                                 
C 54.833159 43.496533 42.864335                                                 
C 56.123587 41.084614 49.501660                                                 
H 57.225879 34.877118 36.744039                                                 
H 58.633234 37.354089 30.620657                                                 
H 57.151108 34.660684 49.407434                                                 
H 58.549143 37.069994 42.739691                                                 
C 45.489790 41.429239 30.541163                                                 
C 45.453248 41.314057 36.874966                                                 
C 46.829221 43.755984 30.665999                                                 
C 48.138874 41.310676 36.864652                                                 
C 49.533789 39.103306 30.483961                                                 
C 49.486636 38.978066 36.874352                                                 
C 50.871482 41.427034 30.615273                                                 
C 52.169537 38.972519 36.811799                                                 
C 45.434592 41.187516 43.026981                                                 
C 45.386942 41.094993 49.114278                                                 
C 46.782102 43.513438 42.996567                                                 
C 48.071473 41.095617 49.134844                                                 
C 49.459098 38.849569 43.040495                                                 
C 49.415545 38.759842 49.176934                                                 
C 50.810880 41.173984 42.990931                                                 
C 52.099591 38.760801 49.241952                                                 
C 53.560773 36.802029 30.511822                                                 
C 53.525548 36.618470 36.809289                                                 
C 54.919791 39.078469 30.595540                                                 
C 56.191783 36.669900 36.746202                                                 
C 53.469563 36.535420 42.980509                                                 
C 53.454112 36.403013 49.282887                                                 
C 54.846697 38.805116 42.903268                                                 
C 56.112782 36.451135 49.388832                                                 
H 61.267408 37.191669 36.597578                                                 
H 62.662709 39.671698 30.584519                                                 
H 61.186835 36.998092 49.652906                                                 
H 62.600031 39.412590 42.534776                                                 
H 28.257114 61.639080 37.494633                                                 
H 28.177409 61.460766 49.187523                                                 
C 29.310003 59.998693 29.908661                                                 
C 29.284512 59.852751 37.322313                                                 
C 30.609109 62.253863 29.749395                                                 
C 32.002642 59.929754 37.384656                                                 
C 33.330937 57.653968 30.198729                                                 
C 33.342562 57.579586 37.112995                                                 
C 34.667707 59.982224 30.061827                                                 
C 36.045702 57.606516 37.018495                                                 
H 29.577414 64.039814 29.609841                                                 
H 32.323022 63.988241 37.611938                                                 
C 33.323726 62.343754 29.789224                                                 
C 33.356261 62.213699 37.370798                                                 
C 34.664595 64.616413 29.650812                                                 
C 36.028821 62.286234 37.233296                                                 
C 29.343520 59.846217 43.251638                                                 
C 29.195345 59.661126 49.222334                                                 
C 30.629018 62.081884 43.290460                                                 
C 31.908956 59.737921 49.219378                                                 
C 33.350657 57.481033 43.168658                                                 
C 33.259576 57.380419 49.204452                                                 
C 34.684986 59.797963 43.216528                                                 
C 35.952737 57.394197 49.180769                                                 
H 29.606232 63.880077 43.329173                                                 
H 32.206264 63.787531 49.183591                                                 
C 33.339636 62.156892 43.277103                                                 
C 33.246039 61.999477 49.214195                                                 
C 34.683474 64.421513 43.278490                                                 
C 35.922504 62.070296 49.250852                                                 
C 41.407005 57.701557 30.560581                                                 
C 41.425739 57.608907 36.899801                                                 
C 42.748158 60.025614 30.433489                                                 
C 44.118018 57.610976 36.877063                                                 
C 41.411008 57.478819 43.060929                                                 
C 41.334627 57.398188 49.150443                                                 
C 42.753008 59.805928 43.071280                                                 
C 44.021466 57.400484 49.157384                                                 
C 37.365661 59.999500 30.222992                                                 
C 37.382930 59.928268 37.073142                                                 
C 38.698444 62.329452 30.058493                                                 
C 40.078314 59.937132 36.991387                                                 
C 37.374885 59.807233 43.174525                                                 
C 37.287242 59.717864 49.216676                                                 
C 38.714796 62.133447 43.187178                                                 
C 39.976642 59.726869 49.231451                                                 
C 41.421633 53.048434 30.740865                                                 
C 41.425435 52.952386 36.853832                                                 
C 42.760918 55.378994 30.690778                                                 
C 44.115909 52.953057 36.854702                                                 
C 41.413113 52.824283 42.983448                                                 
C 41.347307 52.741003 49.054599                                                 
C 42.757506 55.151501 43.010893                                                 
C 44.036498 52.742927 49.043148                                                 
C 37.374243 55.352252 30.562256                                                 
C 37.392051 55.275145 36.906413                                                 
C 38.713496 57.686784 30.475801                                                 
C 40.081380 55.281628 36.878745                                                 
C 37.381750 55.150764 43.057156                                                 
C 37.307681 55.063831 49.134855                                                 
C 38.723433 57.476071 43.097248                                                 
C 39.996869 55.068504 49.100715                                                 
C 41.374345 67.035329 29.956741                                                 
C 41.468795 66.905264 37.125864                                                 
C 42.776791 69.338546 30.119985                                                 
C 44.114684 66.935886 36.933088                                                 
C 41.358410 66.803074 43.034426                                                 
C 41.309210 66.683918 49.672157                                                 
C 42.774917 69.104946 42.874744                                                 
C 43.938717 66.713586 49.874444                                                 
H 37.682557 68.766248 29.613434                                                 
H 40.448944 68.699381 37.271247                                                 
H 37.686334 68.556677 43.160476                                                 
H 40.275117 68.474493 49.712447                                                 
C 41.393768 62.345912 30.197425                                                 
C 41.436754 62.262470 37.052710                                                 
C 42.748160 64.694007 30.110682                                                 
C 44.120851 62.268324 36.936107                                                 
C 41.397882 62.135065 43.113261                                                 
C 41.313800 62.051474 49.367890                                                 
C 42.741960 64.464755 43.020208                                                 
C 43.996158 62.047256 49.442542                                                 
H 33.623306 66.387997 29.429148                                                 
H 33.642755 66.211234 43.301961                                                 
C 37.328599 64.687959 29.777026                                                 
C 37.401284 64.566904 37.298238                                                 
C 38.713161 66.981779 29.767325                                                 
C 40.076699 64.622563 37.283999                                                 
C 37.350544 64.482618 43.228130                                                 
C 37.282085 64.347766 49.326132                                                 
C 38.724938 66.766389 43.157787                                                 
C 39.934102 64.402180 49.448951                                                 
C 61.650836 41.475456 30.579598                                                 
C 61.539042 41.226030 36.573337                                                 
C 62.940173 43.707372 30.561276                                                 
H 63.604941 41.245350 36.510821                                                 
C 61.644039 46.094244 30.581605                                                 
C 61.539598 45.902693 36.566871                                                 
C 62.927878 48.387361 30.555975                                                 
H 63.606379 45.894050 36.512952                                                 
H 65.009030 43.725220 30.543531                                                 
C 61.576872 41.206788 42.546719                                                 
C 61.451784 41.028087 49.968806                                                 
C 62.882226 43.457561 42.450371                                                 
H 63.515038 41.026864 50.130281                                                 
C 61.597885 45.851968 42.456874                                                 
C 61.458070 45.743003 50.073725                                                 
C 62.890966 48.151797 42.351638                                                 
H 63.513672 45.730706 50.311845                                                 
H 64.947743 43.459860 42.351568                                                 
C 61.633006 55.357767 30.288128                                                 
C 61.584093 55.234607 36.850109                                                 
C 62.916145 57.728558 30.093956                                                 
H 63.651278 55.232615 36.855526                                                 
H 64.996183 53.058250 30.429806                                                 
C 61.601333 55.159977 42.708589                                                 
C 61.452971 55.135165 49.860214                                                 
C 62.894713 57.530379 42.898160                                                 
H 63.515685 55.149438 50.044703                                                 
H 64.945912 52.860112 42.203835                                                 
C 61.640453 50.731736 30.532711                                                 
C 61.561809 50.572793 36.622655                                                 
C 62.926389 53.058058 30.435359                                                 
H 64.997850 48.384287 30.533581                                                 
C 61.608072 50.489302 42.444063                                                 
C 61.465258 50.434627 50.062477                                                 
C 62.889662 52.846300 42.430066                                                 
H 64.949655 48.142049 42.147818                                                 
H 41.725579 71.117792 30.144484                                                 
H 44.481969 71.013723 36.750122                                                 
H 41.731106 70.890772 42.876564                                                 
H 44.327756 70.802194 50.203761                                                 
C 45.365164 69.338322 30.235997                                                 
C 45.527797 69.232642 36.818090                                                 
H 46.398536 71.122092 30.394964                                                 
C 48.118429 69.247368 36.849712                                                 
C 49.432496 67.016236 29.957079                                                 
C 49.531445 66.953206 37.019009                                                 
H 50.450731 68.816236 29.886575                                                 
C 52.196382 66.914718 37.169973                                                 
H 49.157468 71.034750 36.790087                                                 
C 45.357323 69.113610 42.657907                                                 
C 45.369022 69.019649 50.116232                                                 
H 46.386285 70.897634 42.483794                                                 
C 47.972933 69.024448 50.148199                                                 
C 49.445920 66.778997 42.826894                                                 
C 49.418083 66.724917 49.939152                                                 
H 50.470975 68.571686 42.719036                                                 
C 52.055033 66.706000 49.827275                                                 
H 49.004545 70.810316 50.281108                                                 
H 57.287159 66.334141 37.501199                                                 
H 57.136273 66.181713 49.569302                                                 
H 53.222868 68.709074 37.210467                                                 
H 53.082942 68.498539 49.937295                                                 
C 57.551755 62.326524 29.745028                                                 
C 57.581612 62.273646 37.322713                                                 
H 58.593363 64.102427 29.539448                                                 
C 60.294424 62.177536 37.373398                                                 
C 57.543563 62.095745 43.326620                                                 
C 57.455565 62.122743 49.425215                                                 
H 58.587096 63.878865 43.418370                                                 
C 60.160086 62.051641 49.389692                                                 
C 53.501009 64.679567 29.754444                                                 
C 53.582016 64.622605 37.262056                                                 
C 56.245736 64.552849 37.366590                                                 
C 53.498140 64.450076 43.186245                                                 
C 53.439917 64.433200 49.602447                                                 
C 56.101733 64.389373 49.520734                                                 
C 61.624996 59.963653 29.819707                                                 
C 61.589065 59.919907 37.246494                                                 
H 62.652555 61.750758 29.648779                                                 
H 63.653416 59.907948 37.289497                                                 
H 64.984078 57.725104 30.145790                                                 
H 61.325723 63.962009 37.524899                                                 
C 61.597006 59.746352 43.194188                                                 
C 61.455886 59.814439 49.474656                                                 
H 62.622936 61.533002 43.360794                                                 
H 63.523437 59.801986 49.455908                                                 
H 64.960703 57.523555 42.788669                                                 
H 61.181132 63.848379 49.300713                                                 
H 63.515069 50.437653 50.351712                                                 
H 36.306164 34.658216 49.290065                                                 
H 36.241321 66.134794 49.318595                                                 
H 27.274177 50.504555 42.833171                                                 
H 54.533867 66.240031 43.204663                                                 
H 63.628925 50.561717 36.585321                                                 
H 54.497899 34.741387 42.971533                                                 
H 36.359084 34.894123 36.836991                                                 
H 36.371968 66.345322 37.525681                                                 
H 54.528072 66.465388 29.564330                                                 
H 27.270688 50.644861 30.526220                                                 
H 54.597285 35.012495 30.493260                                                 
Li 59.016907 60.115377 33.697324                                                
Li 30.449163 43.286680 46.264647                                                
Li 44.161462 34.176028 33.411050                                                
Li 46.657085 66.996214 46.494913                                                
Li 60.365482 43.571236 46.090053                                                
Li 31.894203 60.205703 33.469024                                                
Li 51.151021 64.781052 33.635175                                                
Li 39.758766 64.964165 33.432590                                                
Li 60.746966 52.609016 46.125008                                                
Li 28.745400 52.241640 45.992640                                                
%ENDBLOCK POSITIONS_ABS                                                         

--------------------------------------------------------------------------------
-------------------------------- END INPUT FILE --------------------------------
--------------------------------------------------------------------------------


 
<<<<<<<<<<<<<<<<<<<<<<<<<<<<<<<<< Full system >>>>>>>>>>>>>>>>>>>>>>>>>>>>>>>>>>
<<<<<<<<<<<<<<<<<<<<<<<<<<< PAW Dataset information >>>>>>>>>>>>>>>>>>>>>>>>>>>
File: ~/pp/paw/c_pbe_abinit.paw; rc = 1.25 bohr; shape type =  3; rshape = 1.25 bohr;
  Atomic number:  6;  ionic charge:  4.000000
    Partial Wave 1: l = 0
    Partial Wave 2: l = 0
    Partial Wave 3: l = 1
    Partial Wave 4: l = 1
  Core charge supplied for Nonlinear Core Corrections
File: ~/pp/paw/h_pbe_abinit.paw; rc = 0.90 bohr; shape type =  3; rshape = 0.90 bohr;
  Atomic number:  1;  ionic charge:  1.000000
    Partial Wave 1: l = 0
    Partial Wave 2: l = 0
File: ~/pp/paw/li_pbe_abinit.paw; rc = 1.42 bohr; shape type =  3; rshape = 1.42 bohr;
  Atomic number:  3;  ionic charge:  3.000000
    Partial Wave 1: l = 0
    Partial Wave 2: l = 0
    Partial Wave 3: l = 0
    Partial Wave 4: l = 1
    Partial Wave 5: l = 1
<<<<<<<<<<<<<<<<<<<<<<<<<<<<<<<<<<<<<<< >>>>>>>>>>>>>>>>>>>>>>>>>>>>>>>>>>>>>>>

-------------------------- Atom counting information ---------------------------
Symbol    Natoms    Nngwfs    Nprojs
  C        484      1936      3872
  H        108       108       216
  Li        10        50        90
.......   ......    ......    ......
Totals:    602      2094      4178
--------------------------------------------------------------------------------

=============================== PSINC grid sizes ===============================
                      Simulation cell:  189 x 189 x 189
                              FFT-box:  117 x 117 x 117
                                  PPD:    7 x   7 x   1
Grid space d1=  0.499927596032a0 (KE cutoff=  30.39413Eh = 827.06648eV)
Grid space d2=  0.499927596032a0 (KE cutoff=  30.39413Eh = 827.06648eV)
Grid space d3=  0.499927596032a0 (KE cutoff=  30.39413Eh = 827.06648eV)
================================================================================
  
WARNING in cell_grid_distribute:
Average of less than one 23-slab per node, so workload cannot be
equally balanced between nodes.

********************* Fourier parallelisation information **********************
       Coarse grid (whole simulation cell) dimensions:    189   189   189
          Real-space ('12') slabs/node (min max mean):      1     2     1
         Recip-space ('23') slabs/node (min max mean):      0     1     0
********************************************************************************

********************* Fourier parallelisation information **********************
       Double grid (whole simulation cell) dimensions:    378   378   378
          Real-space ('12') slabs/node (min max mean):      2     3     2
         Recip-space ('23') slabs/node (min max mean):      1     2     1
********************************************************************************

Atom SCF Calculation for C  : Z (AE atom) =   6 : Z (PS atom) =   4
Config String: 2s2 2p2
Orbitals (num,occ):  2     2.00 2.00
Orbitals   (num,l):  2        0    1
Real-space Grid (nr,dr,rmax): 1377    0.0065406977    9.0000000000
Spherical Bessel Basis (nsws,lmax,cutoff):   37    2  183.0099912382
Confining potential (l,width,scale):  0    3.0000000000  100.0000000000
Confining potential (l,width,scale):  1    3.0000000000  100.0000000000
  1         -5.4350126632   -1.2715272878    4.5135247139   -1.5681949477
  2         -5.3876836850   -1.3562195125    4.4235426751   -1.5380057521
  3         -5.3928844498   -1.3758175853    4.4021699684   -1.5318377811
  4         -5.3988962903   -1.3800385428    4.3975423583   -1.5307324410
  5         -5.4018428823   -1.3823489590    4.3950111904   -1.5301555648
  6         -5.4033571720   -1.3835805046    4.3936635548   -1.5298576834
  7         -5.4041480647   -1.3842324820    4.3929512000   -1.5297032953
  8         -5.4045641108   -1.3845769138    4.3925755232   -1.5296229456
  9         -5.4047838258   -1.3847587737    4.3923775340   -1.5295810042
 10         -5.4049001347   -1.3848548089    4.3922731819   -1.5295590658
 11         -5.4049618018   -1.3849055476    4.3922181562   -1.5295475724
 12         -5.4049945351   -1.3849323732    4.3921891206   -1.5295415432
 13         -5.4050119258   -1.3849465673    4.3921737867   -1.5295383767
 14         -5.4050211723   -1.3849540841    4.3921656816   -1.5295367119
 15         -5.4050260920   -1.3849580684    4.3921613935   -1.5295358358
 16         -5.4050287113   -1.3849601822    4.3921591228   -1.5295353742
 17         -5.4050301068   -1.3849613045    4.3921579192   -1.5295351307
 18         -5.4050308507   -1.3849619010    4.3921572806   -1.5295350022
 19         -5.4050312476   -1.3849622183    4.3921569415   -1.5295349343
 20         -5.4050314594   -1.3849623873    4.3921567612   -1.5295348984
 21         -5.4050315725   -1.3849624773    4.3921566653   -1.5295348794
 22         -5.4050316330   -1.3849625253    4.3921566143   -1.5295348693
Atom SCF converged after  22 iterations to a total energy of     -5.40503163

Atom SCF Calculation for H  : Z (AE atom) =   1 : Z (PS atom) =   1
Config String: 1s1
Orbitals (num,occ):  1     1.00
Orbitals   (num,l):  1        0
Real-space Grid (nr,dr,rmax): 1377    0.0065406977    9.0000000000
Spherical Bessel Basis (nsws,lmax,cutoff):   37    1  183.0099912382
Confining potential (l,width,scale):  0    3.0000000000  100.0000000000
  1         -0.3605254152   -0.2399954029    0.2820952946   -0.2424203210
  2         -0.4156854077   -0.2398249290    0.2871789324   -0.2464796203
  3         -0.4412552402   -0.2379720642    0.2899127187   -0.2499011370
  4         -0.4517265951   -0.2371980236    0.2908966173   -0.2514141636
  5         -0.4557775773   -0.2369735141    0.2911607883   -0.2519713623
  6         -0.4573363459   -0.2369240355    0.2912108681   -0.2521663171
  7         -0.4579443228   -0.2369187864    0.2912112833   -0.2522344454
  8         -0.4581858602   -0.2369215483    0.2912049187   -0.2522587615
  9         -0.4582834939   -0.2369242589    0.2912002081   -0.2522677042
 10         -0.4583235236   -0.2369258837    0.2911975892   -0.2522710965
 11         -0.4583401154   -0.2369267223    0.2911962825   -0.2522724192
 12         -0.4583470483   -0.2369271266    0.2911956643   -0.2522729467
 13         -0.4583499624   -0.2369273145    0.2911953803   -0.2522731607
 14         -0.4583511926   -0.2369274000    0.2911952521   -0.2522732486
 15         -0.4583517136   -0.2369274385    0.2911951948   -0.2522732850
 16         -0.4583519349   -0.2369274556    0.2911951693   -0.2522733002
 17         -0.4583520290   -0.2369274632    0.2911951581   -0.2522733066
Atom SCF converged after  17 iterations to a total energy of     -0.45835203

Atom SCF Calculation for Li : Z (AE atom) =   3 : Z (PS atom) =   3
Config String: 1s2 2s1 2p0
Orbitals (num,occ):  3     2.00 1.00 0.00
Orbitals   (num,l):  3        0    0    1
Real-space Grid (nr,dr,rmax): 1377    0.0065406977    9.0000000000
Spherical Bessel Basis (nsws,lmax,cutoff):   37    2  183.0099912382
Confining potential (l,width,scale):  0    3.0000000000  100.0000000000
Confining potential (l,width,scale):  1    3.0000000000  100.0000000000
  1         -6.0640888065   -4.6655401716    2.5388576516   -0.9989538799
  2         -6.9627542978   -4.0954079129    2.9808988108   -1.1965571426
  3         -7.2692687601   -3.8889996707    3.2029735703   -1.3193883705
  4         -7.3784440298   -3.8322099748    3.2868571989   -1.3711018151
  5         -7.4170278248   -3.8191968371    3.3144974220   -1.3911175539
  6         -7.4303549880   -3.8172386945    3.3228486489   -1.3986896266
  7         -7.4348052089   -3.8175483495    3.3251259310   -1.4015352495
  8         -7.4362242328   -3.8180607346    3.3256233205   -1.4026016384
  9         -7.4366459715   -3.8184145665    3.3256561549   -1.4029998726
 10         -7.4367560626   -3.8186169740    3.3256001574   -1.4031477379
 11         -7.4367765260   -3.8187239825    3.3255481763   -1.4032021548
 12         -7.4367751741   -3.8187782620    3.3255144587   -1.4032219192
 13         -7.4367707398   -3.8188051288    3.3254952336   -1.4032289600
 14         -7.4367680349   -3.8188156035    3.3254870176   -1.4032309087
 15         -7.4367661982   -3.8188217406    3.3254819951   -1.4032318132
 16         -7.4367650112   -3.8188253257    3.3254789583   -1.4032322224
 17         -7.4367642682   -3.8188274151    3.3254771375   -1.4032324006
 18         -7.4367638134   -3.8188286307    3.3254760529   -1.4032324736
 19         -7.4367635392   -3.8188293370    3.3254754103   -1.4032325004
 20         -7.4367633760   -3.8188297469    3.3254750310   -1.4032325080
 21         -7.4367632796   -3.8188299846    3.3254748079   -1.4032325082
Atom SCF converged after  21 iterations to a total energy of     -7.43676328

Determining parallel strategy ...
... using space-filling curve
... NGWF load balancing: max     16;  min     12;  average     13
... Projector load balancing: max     32;  min     24;  average     26
... done
Calculating Ewald energy ...
              Ewald: real-space energy =   35734.921405
        Ewald: reciprocal-space energy =   34152.139058
         Ewald: (sum_charge)**2 Energy =    2695.792309
         Ewald: (sum_charge**2) Energy =     244.245769
                          Ewald Energy =   66947.022384
======================= Empirical dispersion information =======================
Model : Grimme D2
Dispersion Correction Energy: -0.19033624E+01 Hartree
================================================================================
Basis initialisation ...... NGWF spheres initialised
... Projector spheres initialised
... NGWF tight boxes initialised
... Projector tight boxes initialised
... Tight-boxes gathered
... NGWF basis size (local,global):     262739  42261266
... PAW projector initialisation
... done

============================= Charge Augmentation ==============================
                           Aug box size:   13 x  13 x  13
================================================================================

========================== Sparse matrix information ===========================
                        Overlap matrix filling:  38.95%
                        Density kernel filling: 100.00%
              NGWF-Proj overlap matrix filling:  11.05%
                    Aug Overlap matrix filling:  43.13%
                    Hamiltonian matrix filling:  43.13%
                  NGWF diagonal matrix filling:   0.18%
                             KS matrix filling: 100.00% 
                           KSKS matrix filling: 100.00% 
================================================================================

Sparse matrix initialisation ... done
NGWF initialisation ...... done
============ Calculation of NGWF S^-1 using Hotelling algorithm ================ 
         Iteration  |  Frobenius norm and Maximum abs value    (of I-S*S_n^-1)   
               1       0.45375193E+02     0.99543275E+00
               2       0.45012637E+02     0.99090555E+00
               3       0.44347814E+02     0.98196594E+00
               4       0.43217346E+02     0.96451292E+00
               5       0.41511820E+02     0.93110015E+00
               6       0.39279692E+02     0.86911963E+00
               7       0.36621237E+02     0.77757035E+00
               8       0.33618676E+02     0.75527606E+00
               9       0.30564610E+02     0.74093000E+00
              10       0.27645060E+02     0.72707257E+00
              11       0.24414458E+02     0.70353125E+00
              12       0.20207401E+02     0.67108939E+00
              13       0.14702354E+02     0.62090627E+00
              14       0.85038930E+01     0.53749937E+00
              15       0.33815281E+01     0.40876892E+00
              16       0.79412283E+00     0.24141142E+00
              17       0.14702287E+00     0.86414250E-01
              18       0.17173590E-01     0.11279344E-01
              19       0.29292740E-03     0.19302970E-03
              20       0.85805787E-07     0.56543456E-07
              21       0.45091403E-13     0.37747583E-14
================================================================================
Calculating core density ...
================================= Core Density =================================
               Core den box size:   21 x  21 x  21
================================================================================
 ... done
Up spin density kernel initialisation ...... done
Down spin density kernel initialisation ...... done

Writing density kernel to file "10/592nano.dkn" ... done

>>> Optimising kernel for current NGWFs:

--------------------------- Ensemble-DFT optimisation --------------------------
Running ScaLAPACK on  160 processor(s).

--------------------------------------------------------------------------------
  Iter                              Commutator    Free_energy(A=E-TS)     DeltaA
#    0                          0.000851618250   -2890.34461889173326  -2.89E+03

Step                       =       0.381966011250
Energy                     =   -2890.313705639421
Entropy (-TS)              =      -0.030913252605
Free energy (A=E-TS)       =   -2890.344618891733
Est. 0K Energy 0.5*(E+A)   =   -2890.329162265577
Residual Non-orthogonality =       0.000000000000
Residual N_electrons       =       0.000000000293

Spin          Integrated_Ne            Fermi_level     Delta_Fermi_level
   1      1037.000000000582        -0.251011937231             -2.51E-01
   2      1037.000000000583        -0.251011937230             -2.51E-01

                           Spin 1           |                 Spin 2           |
     Orb |    H-eigenvalues     Occupancies |    H-eigenvalues     Occupancies |
       1 |    -1.8949548370    1.0000000000 |    -1.8949548370    1.0000000000 | 
                          ------                             ------
    1033 |    -0.2717145791    0.9985538129 |    -0.2717145791    0.9985538129 | 
    1034 |    -0.2611745609    0.9611754008 |    -0.2611745609    0.9611754008 | 
    1035 |    -0.2550578919    0.7820429240 |    -0.2550578919    0.7820429240 | 
    1036 |    -0.2540560497    0.7233729520 |    -0.2540560497    0.7233729520 | 
    1037 |    -0.2502447054    0.4397263650 |    -0.2502447054    0.4397263650 | 
                 - Gap at zero temperature - |     - Gap at zero temperature -
    1038 |    -0.2491399512    0.3563764310 |    -0.2491399512    0.3563764310 | 
    1039 |    -0.2469284204    0.2159420768 |    -0.2469284204    0.2159420768 | 
    1040 |    -0.2455288120    0.1504042365 |    -0.2455288120    0.1504042365 | 
    1041 |    -0.2450152689    0.1308347510 |    -0.2450152689    0.1308347510 | 
    1042 |    -0.2441920293    0.1039993319 |    -0.2441920293    0.1039993319 | 
                          ------                             ------
    2094 |     0.5650220310    0.0000000000 |     0.5650220310    0.0000000000 | 

                       |  Abs_value |  Threshold | Converged
     Delta_Free_energy |   2.89E+03 |   1.00E-06 |        No
     Delta_Energy      |   2.89E+03 |   1.00E-04 |        No
     Delta_Entropy     |   3.09E-02 |   1.00E-04 |        No
     Commutator        |   8.52E-04 |   1.00E-05 |        No
     Delta_Fermi_level |   2.51E-01 |   1.00E-03 |        No

  Line search of the free energy minimum:
  Step_type        Step             Free_energy   Predicted_free_energy
.   Initial    0.000000    -2890.34461889173326
.    Trial1    0.381966    -2890.25933658579379
.    Trial2    0.145898    -2890.69498423791629
. Quadratic    0.180942    -2890.70655537266930    -2890.70863890435339

--------------------------------------------------------------------------------
  Iter                              Commutator    Free_energy(A=E-TS)     DeltaA
#    1                          0.000561758991   -2890.70655537266930  -3.62E-01

Step                       =       0.180942405351
Energy                     =   -2890.677114407239
Entropy (-TS)              =      -0.029440965114
Free energy (A=E-TS)       =   -2890.706555372669
Est. 0K Energy 0.5*(E+A)   =   -2890.691834889954
Residual Non-orthogonality =       0.000000000000
Residual N_electrons       =      -0.000000000315

Spin          Integrated_Ne            Fermi_level     Delta_Fermi_level
   1      1036.999999999039        -0.237352000943              1.37E-02
   2      1036.999999999632        -0.237352000984              1.37E-02

                           Spin 1           |                 Spin 2           |
     Orb |    H-eigenvalues     Occupancies |    H-eigenvalues     Occupancies |
       1 |    -1.9072703914    1.0000000000 |    -1.9072703916    1.0000000000 | 
                          ------                             ------
    1033 |    -0.2574750608    0.9982638715 |    -0.2574750609    0.9982638715 | 
    1034 |    -0.2450681612    0.9195738373 |    -0.2450681613    0.9195738384 | 
    1035 |    -0.2424166465    0.8319189418 |    -0.2424166466    0.8319189437 | 
    1036 |    -0.2402133187    0.7116749391 |    -0.2402133188    0.7116749419 | 
    1037 |    -0.2377457033    0.5310403740 |    -0.2377457034    0.5310403775 | 
                 - Gap at zero temperature - |     - Gap at zero temperature -
    1038 |    -0.2354844738    0.3566994532 |    -0.2354844738    0.3566994564 | 
    1039 |    -0.2339454829    0.2543218715 |    -0.2339454830    0.2543218741 | 
    1040 |    -0.2318625799    0.1501503722 |    -0.2318625799    0.1501503739 | 
    1041 |    -0.2297919071    0.0841471286 |    -0.2297919064    0.0841471105 | 
    1042 |    -0.2290681081    0.0681254989 |    -0.2290681082    0.0681254997 | 
                          ------                             ------
    2094 |     0.5810334347    0.0000000000 |     0.5810334346    0.0000000000 | 

                       |  Abs_value |  Threshold | Converged
     Delta_Free_energy |   3.62E-01 |   1.00E-06 |        No
     Delta_Energy      |   3.63E-01 |   1.00E-04 |        No
     Delta_Entropy     |   1.47E-03 |   1.00E-04 |        No
     Commutator        |   5.62E-04 |   1.00E-05 |        No
     Delta_Fermi_level |   1.37E-02 |   1.00E-03 |        No

  Line search of the free energy minimum:
  Step_type        Step             Free_energy   Predicted_free_energy
.   Initial    0.000000    -2890.70655537266930
.    Trial1    0.180942    -2890.56719756377652
.    Trial2    0.069114    -2890.85038173617568
. Quadratic    0.075367    -2890.85216414299066    -2890.85137878357045

--------------------------------------------------------------------------------
  Iter                              Commutator    Free_energy(A=E-TS)     DeltaA
#    2                          0.000433197653   -2890.85216414299066  -1.46E-01

Step                       =       0.075367326855
Energy                     =   -2890.819487397363
Entropy (-TS)              =      -0.032676745820
Free energy (A=E-TS)       =   -2890.852164142991
Est. 0K Energy 0.5*(E+A)   =   -2890.835825770177
Residual Non-orthogonality =       0.000000000000
Residual N_electrons       =       0.000000000192

Spin          Integrated_Ne            Fermi_level     Delta_Fermi_level
   1      1037.000000000412        -0.232980380381              4.37E-03
[...]
 C   255 -- C   269       -0.10     -0.00      5.38978
 C   407 -- C   457       -0.10      0.00      5.38979
 C   333 -- C   365       -0.09     -0.00      5.38985
 C   423 -- C   489       -0.10     -0.00      5.38993
 C   285 -- C   287       -0.09      0.00      5.39046
 C    46 -- C   128       -0.10     -0.00      5.39096
 C   257 -- C   439       -0.10      0.00      5.39106
 C   201 -- C   239       -0.10     -0.00      5.39168
 C    36 -- C    98       -0.09     -0.00      5.39169
 C   101 -- C   127       -0.09      0.00      5.39181
 C    99 -- C   521       -0.10     -0.00      5.39184
 C    62 -- C   368       -0.10     -0.00      5.39202
 C   330 -- C   394       -0.09      0.00      5.39205
 C    72 -- C   102       -0.09     -0.00      5.39211
 C    37 -- C   367       -0.09     -0.00      5.39219
 C   256 -- C   410       -0.09     -0.00      5.39234
 C    76 -- C   106       -0.09     -0.00      5.39253
 C   430 -- C   480       -0.09      0.00      5.39260
 C    78 -- C   478       -0.09     -0.00      5.39319
 C   422 -- C   430       -0.10     -0.00      5.39336
 C   190 -- C   284       -0.09     -0.00      5.39344
 C    99 -- C   121       -0.09     -0.00      5.39357
 C   368 -- C   394       -0.10      0.00      5.39364
 C    90 -- C   124       -0.09      0.00      5.39367
 C    67 -- C    89       -0.09     -0.00      5.39417
 C   115 -- C   479       -0.09      0.00      5.39418
 C    49 -- C   391       -0.09      0.00      5.39433
 C   481 -- C   489       -0.09     -0.00      5.39545
 C    36 -- C    50       -0.09      0.00      5.39566
 C   189 -- C   191       -0.09      0.00      5.39610
 C    73 -- C   433       -0.09      0.00      5.39675
 C   327 -- C   333       -0.09     -0.00      5.39780
 C   242 -- C   328       -0.09      0.00      5.39818
 C   211 -- C   315       -0.09     -0.00      5.39872
 C   210 -- C   296       -0.09      0.00      5.39902
 C    69 -- C    95       -0.09     -0.00      5.39910
 C   186 -- C   192       -0.09      0.00      5.39946
 C    97 -- C   123       -0.09      0.00      5.39946
 C   293 -- C   421       -0.09     -0.00      5.39952
 C    86 -- C   482       -0.09      0.00      5.39959
 H   472 -- Li  600       -0.03     -0.00      5.40032
 C    64 -- C   366       -0.09     -0.00      5.40066
 C    85 -- C    95       -0.09     -0.00      5.40082
 C    38 -- C    56       -0.09      0.00      5.40217
 C   229 -- C   235       -0.09      0.00      5.40303
 C   206 -- C   292       -0.09      0.00      5.40451
 C    39 -- C   516       -0.08      0.00      5.40608
 C   285 -- C   407       -0.09     -0.00      5.40648
 C    55 -- C   525       -0.09      0.00      5.40944
 C    84 -- C   567       -0.09     -0.00      5.40957
 C    73 -- C    79       -0.09     -0.00      5.40975
 C    80 -- C   538       -0.08     -0.00      5.40985
 C    53 -- C   395       -0.09     -0.00      5.40998
 C   313 -- C   319       -0.09      0.00      5.41016
 C   202 -- C   208       -0.09      0.00      5.41047
 C    66 -- C   100       -0.09     -0.00      5.41091
 C   416 -- C   476       -0.09     -0.00      5.41100
 C    74 -- C   488       -0.09     -0.00      5.41140
 C    75 -- C   463       -0.10     -0.00      5.41208
 C   409 -- C   485       -0.09      0.00      5.41345
 C    52 -- C   338       -0.09     -0.00      5.41433
 C   260 -- C   420       -0.10     -0.00      5.41439
 C   441 -- C   463       -0.08      0.00      5.41443
 C    72 -- C   560       -0.10      0.00      5.41475
 C    82 -- C   492       -0.09      0.00      5.41519
 C   181 -- C   183       -0.09      0.00      5.41541
 C    92 -- C   564       -0.09      0.00      5.41611
 C   440 -- C   488       -0.09     -0.00      5.41639
 C   339 -- C   497       -0.09      0.00      5.41663
 C   231 -- C   323       -0.09      0.00      5.41741
 C   466 -- C   538       -0.09     -0.00      5.41747
 C    77 -- C    91       -0.08      0.00      5.41848
 C    70 -- C   104       -0.09      0.00      5.41882
 C   238 -- C   314       -0.09      0.00      5.41917
 C   261 -- C   427       -0.09      0.00      5.42014
 C    40 -- C   102       -0.09     -0.00      5.42057
 C   408 -- C   416       -0.09     -0.00      5.42061
 C   234 -- C   332       -0.09      0.00      5.42118
 C    38 -- C   104       -0.09     -0.00      5.42197
 C   205 -- C   207       -0.09      0.00      5.42227
 C   182 -- C   188       -0.09      0.00      5.42329
 C    71 -- C   516       -0.09     -0.00      5.42697
 C    79 -- C    89       -0.08      0.00      5.42764
 C    65 -- C    91       -0.09      0.00      5.42788
 C   477 -- C   485       -0.08      0.00      5.42983
 H   519 -- Li  601       -0.03      0.00      5.42988
 C    40 -- C    54       -0.09     -0.00      5.43023
 C    81 -- C    87       -0.08      0.00      5.43218
 C    76 -- C   564       -0.08     -0.00      5.43251
 C   103 -- C   525       -0.08     -0.00      5.43544
 C   252 -- C   406       -0.09      0.00      5.43561
 C    56 -- C   342       -0.09     -0.00      5.44297
 C    67 -- C   511       -0.09      0.00      5.44332
 C   230 -- C   318       -0.08     -0.00      5.44432
 C   197 -- C   199       -0.08     -0.00      5.45175
 C    83 -- C   467       -0.08     -0.00      5.45582
 C   253 -- C   413       -0.08     -0.00      5.46667
 C   343 -- C   506       -0.08      0.00      5.46720
 C    68 -- C   556       -0.08      0.00      5.47064
 C   198 -- C   204       -0.08     -0.00      5.47327
 C   227 -- C   309       -0.07     -0.00      5.47406
 C   470 -- C   547       -0.07     -0.00      5.47976
 H   589 -- Li  600       -0.02     -0.00      5.48921
 H   581 -- Li  601       -0.02      0.00      5.49929
 C   263 -- Li  602       -0.06     -0.00      5.51037
 C   205 -- Li  602       -0.05      0.00      5.51896
 H   590 -- Li  599       -0.02      0.00      5.55097
 H   539 -- Li  599       -0.02      0.00      5.55204
 H   131 -- Li  594       -0.02      0.00      5.56720
 C   160 -- Li  602       -0.06     -0.00      5.57433
 C   264 -- Li  602       -0.06     -0.00      5.58373
 H   548 -- Li  596       -0.02      0.00      5.59331
 H   544 -- Li  596       -0.02      0.00      5.60210
 H   401 -- Li  598       -0.02     -0.00      5.61146
 H   165 -- Li  594       -0.02      0.00      5.61417
 H   151 -- Li  595       -0.02      0.00      5.61946
 H   412 -- Li  598       -0.02     -0.00      5.62630
 H   135 -- Li  595       -0.02     -0.00      5.64108
=============================================================


============== Orbital energy and occupancy information for spin 1 =============

      Total number of orbitals:    2094
        Occupancy sum (kernel):    1037.000000009
   Occupancy sum (eigenvalues):    1037.000000009
                 HOMO-LUMO gap:       0.001283522 Eh
                 Mid-gap level:      -0.095881653 Eh

                        Orbital | Energy (Eh) | Occupancy
                            1    -1.846730963   1.0000000
                        .......   ...........   .........
                         1029    -0.138885875   0.9999975
                         1030    -0.136330378   0.9999944
                         1031    -0.135633469   0.9999930
                         1032    -0.127692623   0.9999149
                         1033    -0.116502088   0.9970957
                         1034    -0.103055206   0.8307692
                         1035    -0.102679221   0.8132566
                         1036    -0.100910746   0.7139231
                         1037    -0.098148252   0.5115083
                         1038    -0.096523414   0.3845757
                        ....... -- gap at 0K -- .........
                         1039    -0.095239892   0.2942172
                         1040    -0.091977472   0.1292378
                         1041    -0.091267033   0.1061362
                         1042    -0.090835663   0.0940411
                         1043    -0.090302606   0.0804833
                         1044    -0.084753129   0.0149271
                         1045    -0.084302776   0.0129768
                         1046    -0.082771313   0.0080447
                         1047    -0.079709781   0.0030741
                         1048    -0.078947572   0.0024190
                        .......   ...........   .........
                         2094     0.775963061   0.0000000

================================================================================

============== Orbital energy and occupancy information for spin 2 =============

      Total number of orbitals:    2094
        Occupancy sum (kernel):    1036.999999993
   Occupancy sum (eigenvalues):    1036.999999993
                 HOMO-LUMO gap:       0.001624838 Eh
                 Mid-gap level:      -0.097335833 Eh

                        Orbital | Energy (Eh) | Occupancy
                            1    -1.846730963   1.0000000
                        .......   ...........   .........
                         1028    -0.143526887   0.9999994
                         1029    -0.138885875   0.9999975
                         1030    -0.136330378   0.9999944
                         1031    -0.135633469   0.9999930
                         1032    -0.127692623   0.9999149
                         1033    -0.116502089   0.9970957
                         1034    -0.103055206   0.8307692
                         1035    -0.102679222   0.8132566
                         1036    -0.100910745   0.7139231
                         1037    -0.098148252   0.5115082
                        ....... -- gap at 0K -- .........
                         1038    -0.096523414   0.3845757
                         1039    -0.095239892   0.2942172
                         1040    -0.091977472   0.1292379
                         1041    -0.091267033   0.1061362
                         1042    -0.090835662   0.0940411
                         1043    -0.090302606   0.0804833
                         1044    -0.084753129   0.0149271
                         1045    -0.084302777   0.0129768
                         1046    -0.082771313   0.0080447
                         1047    -0.079709782   0.0030741
                        .......   ...........   .........
                         2094     0.775963061   0.0000000

================================================================================

===================== Writing canonical molecular orbitals =====================
    Spin 1
| Orbital  Energy (eV)  Norm     |
| HOMO     -2.62653575  1.000000 | Writing "10/592nano_HOMO_UP.cube" ... done
Writing "10/592nano_HOMO_UP.dx" ... done
| LUMO     -2.59160934  1.000000 | Writing "10/592nano_LUMO_UP.cube" ... done
Writing "10/592nano_LUMO_UP.dx" ... done
================================================================================

===================== Writing canonical molecular orbitals =====================
    Spin 2
| Orbital  Energy (eV)  Norm     |
| HOMO     -2.67074984  1.000000 | Writing "10/592nano_HOMO_DN.cube" ... done
Writing "10/592nano_HOMO_DN.dx" ... done
| LUMO     -2.62653575  1.000000 | Writing "10/592nano_LUMO_DN.cube" ... done
Writing "10/592nano_LUMO_DN.dx" ... done
================================================================================

================== Local Density of States (LDOS) calculation ==================
Writing "10/592nano_UP_LDOS.txt" ...  done
================================================================================

================== Local Density of States (LDOS) calculation ==================
Writing "10/592nano_DN_LDOS.txt" ...  done
================================================================================
 
=============== Density of States (DOS) calculation for UP spin ================
Writing "10/592nano_UP_DOS.txt" ...  done
================================================================================
 
============== Density of States (DOS) calculation for DOWN spin ===============
Writing "10/592nano_DN_DOS.txt" ...  done
================================================================================
 
Writing bands to file "10/592nano.val_bands" ... done
 
================ Projected Density of States (pDOS) calculation ================
 
Constructing AM resolved functions  ...... done
Writing NGWF plot files in formats: CUBE DX ...  done
 
Performing overlap integrals ...  done
 
Computing pDOS weights ...  done
 
All bands spilling parameter =   3.55 %
Occupancy-weighted spilling parameter =   0.96 %
 
 => Outputting data for OptaDOS <=
 
Writing pDOS weights to file "10/592nano.val_pdos_bin" ... done
 
Writing band gradients to file "10/592nano.val_dome_bin" ... done
 
Writing Castep output cell file to "10/592nano-out.cell" ... done
 
 => Computing Gaussian smeared pDOS for UP spin<= 
Writing "10/592nano_UP_PDOS.txt" ...  done
 
 => Computing Gaussian smeared pDOS for DOWN spin<= 
Writing "10/592nano_DN_PDOS.txt" ...  done
 
 => Computing Occupancy-weighted Gaussian smeared pDOS for UP spin<= 
Writing "10/592nano_occ_UP_PDOS.txt" ...  done
  => Band centres for UP spin channel: 
 S band centre of group 1:  -15.149343 eV
 P band centre of group 1:   -7.835358 eV
  Band centres for UP spin channel done. <= 
  => Integrated number of electrons in each AM band for UP spin channel: 
 S num electrons of group 1:  275.012178
 P num electrons of group 1:  752.017222
  Integrated number of electrons for UP spin channel done. <= 
 
 => Computing Occupancy-weighted Gaussian smeared pDOS for DOWN spin<= 
Writing "10/592nano_occ_DN_PDOS.txt" ...  done
  => Band centres for DOWN spin channel: 
 S band centre of group 1:  -15.149343 eV
 P band centre of group 1:   -7.835358 eV
  Band centres for DOWN spin channel done. <=
  => Integrated number of electrons in each AM band for DOWN spin channel: 
 S num electrons of group 1:  275.012178
 P num electrons of group 1:  752.017222
  Integrated number of electrons for DOWN spin channel done. <=
================================================================================

------------------------------ TIMING INFORMATION ------------------------------
AVERAGE TIME:   14796.339s on    160 node(s)                                    
TOTAL TIME:     14796.340s on    160 node(s)                                    
================= AVERAGE TIMINGS FROM ALL NODES (CUMULATIVE) ==================
|| TAG                                    #calls    cpu time   %total  Gflops ||
|| work_imbalance                       :     1        0.00s   0.000%  ------ ||
|| paw_tcore_density                    :     1        0.01s   0.000%  ------ ||
|| paw_sphere_density_on_grid           :     1        0.01s   0.000%  ------ ||
|| sparse_set_to_garbage                :   237        0.01s   0.000%  ------ ||
|| basis_extract_function_from_box      :   366        0.02s   0.000%  ------ ||
|| paw_dij_hartree                      :   900        0.03s   0.000%  ------ ||
|| ngwfs_initialise_from_radial         :     2        0.04s   0.000%  ------ ||
|| ewald_calculate_energy               :     1        0.10s   0.001%  ------ ||
|| density_init_guess_real              :     1        0.22s   0.001%  ------ ||
|| paw_dataset_init                     :     3        0.33s   0.002%  ------ ||
|| paw_tcore_hartree_on_grid            :     1        0.38s   0.003%  ------ ||
|| pseudo_make_structure_factor         :     1        0.48s   0.003%  ------ ||
|| sparse_init                          :     1        0.94s   0.006%  ------ ||
|| dense_normal_eigensolve              :     1        1.06s   0.007%  ------ ||
|| restart_kernel_write                 :    15        1.78s   0.012%  ------ ||
|| paw_species_calc_proj_prec_mat       :     1        2.18s   0.015%  ------ ||
|| sparse_embed_hotelling_invert_embed  :    27        4.51s   0.030%  ------ ||
|| augmentation_screen_dij              :   676        7.30s   0.049%  ------ ||
|| sw_init                              :     1        7.53s   0.051%  ------ ||
|| fourier_apply_box_pair               :   919       10.20s   0.069%  2.381k ||
|| ngwf_gradient_coeffs                 :    14       11.19s   0.076%  ------ ||
|| projectors_init_fftbox_recip         :    57       21.58s   0.146%  ------ ||
|| basis_copy_function_to_box           : 23963       30.23s   0.204%  ------ ||
|| integrals_kinetic                    :    27       32.32s   0.218%  ------ ||
|| hartree_on_grid                      :   671       35.44s   0.240%  ------ ||
|| paw_dij_xc                           :   900       36.85s   0.249%  ------ ||
|| projectors_func_ovlp_box             :    28       39.88s   0.270%  ------ ||
|| function_ops_brappd_ketppd           :    56       43.92s   0.297%  ------ ||
|| hamiltonian_energy_components        :     3       69.67s   0.471%  ------ ||
|| sparse_trace                         : 16792       74.19s   0.501%  ------ ||
|| augmentation_density_on_grid         :   671       89.19s   0.603%  ------ ||
|| eigenstates_pdos                     :     1       89.27s   0.603%  ------ ||
|| aug_nonlocal_mat                     :   886      105.98s   0.716%  ------ ||
|| fourier_apply_cell_forward           :  6031      122.60s   0.829% 171.218 ||
|| fourier_apply_cell_backward          :  6032      130.57s   0.882% 160.799 ||
|| restart_ngwfs_tightbox_output        :    13      136.20s   0.921%  ------ ||
|| basis_dot_function_with_box          : 5.064M     138.86s   0.938%  ------ ||
|| eigenstates_calculate                :     1      190.83s   1.290%  ------ ||
|| xc_energy_potential                  :   670      256.16s   1.731%  ------ ||
|| sparse_product                       : 14525      337.10s   2.278%  ------ ||
|| dense_eigensolve                     :  1280      434.21s   2.935%  ------ ||
|| integrals_locpot_mat_els_batch       :   445      493.48s   3.335%  ------ ||
|| basis_add_function_to_box            : 15.52M     502.54s   3.396%  ------ ||
|| projectors_gradient_batch            :    14      582.91s   3.940%  ------ ||
|| cell_grid_extract_box_real           : 12996      619.40s   4.186%  ------ ||
|| cell_grid_deposit_box_real           : 43028      730.67s   4.938%  ------ ||
|| projectors_grad_precond_batch        :    14      797.09s   5.387%  ------ ||
|| density_batch_row_sums               :   671     1202.36s   8.126%  ------ ||
|| density_fftbox_deposit_to_cell       : 21472     1371.86s   9.272%  ------ ||
|| properties_calculate                 :     1     1398.72s   9.453%  ------ ||
|| edft_diag_ngwf_ham                   :  1278     1522.13s  10.287%  ------ ||
|| ngwf_gradient_build_batch            :    14     1539.59s  10.405%  ------ ||
|| potential_apply_to_ngwf_batch        :   445     1571.41s  10.620%  ------ ||
|| fourier_apply_box                    : 76942     1581.53s  10.689%  4.195k ||
|| ngwf_gradient_batch                  :    14     1668.22s  11.275%  ------ ||
|| ngwf_gradient_lnv                    :    14     1688.34s  11.411%  ------ ||
|| density_fftbox_interpolate_multiply  : 21472     1788.11s  12.085%  ------ ||
|| integrals_locpot_dbl_grid            :   445     2080.27s  14.059%  ------ ||
|| edft_apply_smearing_operator         :   639     2466.06s  16.667%  ------ ||
|| density_batch_interp_deposit         :   671     3909.80s  26.424%  ------ ||
|| density_on_dbl_grid                  :   671     5222.00s  35.293%  ------ ||
|| hamiltonian_lhxc_calculate           :   666     5749.90s  38.860%  ------ ||
|| edft_calculate                       :    14    10474.32s  70.790%  ------ ||
|| ngwf_cg_optimise                     :     1    13378.41s  90.417%  ------ ||
|| total_time                           :     1    14796.34s 100.000%  ------ ||
================================================================================
Overhead of generating timer report: 
- 0 ms averaging over threads,
- 25 ms ensuring consistency across MPI ranks,
- 0 ms printing in order.

Job completed: 24-08-2020 09:47 (+0100)

