 +---------------------------------------------------------------+
 |                                                               |
 |        ####### #     # ####### ####### ####### ######         |
 |        #     # ##    # #          #    #       #     #        |
 |        #     # # #   # #          #    #       #     #        |
 |        #     # #  #  # #####      #    #####   ######         |
 |        #     # #   # # #          #    #       #              |
 |        #     # #    ## #          #    #       #              |
 |        ####### #     # #######    #    ####### #              |
 |                                                               |
 |        Linear-Scaling Ab Initio Total Energy Program          |
 |                                                               |
 |          Release for academic collaborators of ODG            |
 |                                             Version 5.3.2.12  |
 |                                                               |
 +---------------------------------------------------------------+
 |                                                               |
 |  Authors:                                                     |
 |  Jacek Dziedzic, Peter D. Haynes, Nicholas D. M. Hine,        |
 |  Arash. A. Mostofi, Mike C. Payne and Chris-Kriton Skylaris   |
 |                                                               |
 |  Contributors:                                                |
 |  J. Aarons, L. Andrinopoulos, P. W. Avraam, R. A. Bell,       |
 |  A. Bhandari, G. A. Bramley, R. J. Charlton, S. J. Clark,     |
 |  R. J. Clements, G. C. Constantinescu, F. Corsetti,           |
 |  N. Corsini, O. Dieguez, S. M. M. Dubois, K. K. B. Duff,      |
 |  J. M. Escartin, A. Greco, H. Helal, Q. O. Hill, L. P. Lee,   |
 |  J.-H. Li, E. B. Linscott, G. Moynihan, D. D. O`Regan,        |
 |  O. K. Okan, M. J. S. Phipps, C. J. Pickard,                  |
 |  J. C. A. Prentice, M. I. J. Probert, L. E. Ratcliff,         |
 |  M. Robinson, A. Ruiz Serrano, J. S. Spencer, E. W. Tait,     |
 |  G. Teobaldi, D. Turban, V. Vitale, K. A. Wilkinson,          |
 |  C. Weber, J. C. Womack, N. Yeung and T. J. Zuehlsdorff       |
 |                                                               |
 |                                   Copyright (c) 2004-2020     |
 |                                                               |
 |  Please cite:                                                 |
 |  "Introducing ONETEP: Linear-scaling density functional       |
 |   simulations on parallel computers".                         |
 |   C.-K. Skylaris, P. D. Haynes, A. A. Mostofi, M. C. Payne.   |
 |   J. Chem. Phys. 122 084119 (2005).                           |
 |                                                               |
 |          in all publications arising from your use of ONETEP. |
 |                                                               |
 +---------------------------------------------------------------+
 |                                                               |
 |   ONETEP is based on developments described in the following  |
 |   publications:                                               |
 |                                                               |
 |  "Nonorthogonal generalized Wannier function pseudopotential  |
 |   plane-wave method".                                         |
 |   C.-K. Skylaris, A. A. Mostofi, P. D. Haynes, O. Dieguez,    |
 |   M. C. Payne.                                                |
 |   Phys. Rev. B 66 035119 (2002).                              |
 |                                                               |
 |  "Preconditioned iterative minimization for linear-scaling    |
 |   electronic structure calculations".                         |
 |   A. A. Mostofi, P. D. Haynes, C.-K. Skylaris, M. C. Payne.   |
 |   J. Chem. Phys. 119(17), pp.8842-8848 (2003).                |
 |                                                               |
 |  "Total-energy calculations on a real space grid with         |
 |   localized functions and a plane-wave basis".                |
 |   A. A. Mostofi, C.-K. Skylaris, P. D. Haynes, M. C. Payne.   |
 |   Comput. Phys. Commun. 147, pp.788-802 (2002).               |
 |                                                               |
 |  "Accurate kinetic energy evaluation in electronic structure  |
 |   calculations with localized functions on real space grids"  |
 |   C.-K. Skylaris, A. A. Mostofi, P. D. Haynes, C. J. Pickard, |
 |   M. C. Payne.                                                |
 |   Comput. Phys. Commun. 140, pp.315-322 (2001).               |
 |                                                               |
 |  "Accurate ionic forces and geometry optimization in linear-  |
 |   scaling density-functional theory with local orbitals"      |
 |   N. D. M. Hine, M. Robinson, P. D. Haynes, C.-K. Skylaris,   |
 |   M. C. Payne, and A. A. Mostofi.                             |
 |   Phys. Rev. B 83 195102 (2011).                              |
 |                                                               |
 +---------------------------------------------------------------+

Job started: 16-09-2020 03:38 (+0100)
 
Reading parameters from file "26/592nano.dat" ...... done

If your calculation crashes here, before "Checking processes and threads..."
is displayed, then your stack size is insufficient.
If so, use "ulimit -s unlimited" at runtime.
You can disable this check with "check_stack_size F".

Checking processes and threads...
   Determining the default number of threads...
      No default threads set at compilation time: defaulting to 1.
      OpenMP library call suggests 4 threads.
      Hybrid MPI-OpenMP compilation detected.
      Number of MPI processes > 1.
      OMP_NUM_THREADS environment variable present and
      its value matches the one obtained from the OpenMP library call.
      Using this value as default.
      Default threads: 4
      Default applies to threads_max and threads_num_fftboxes.
      Settings in the input file override this default.
   ... done

   Running with 160 MPI processes.
   There are 10 MPI processes running on the same node as the root process.
   Each MPI process is using: 
               1 threads for simulation cell FFTs.
               1 threads for parallel FFT box operations.
               4 threads for loops over batched FFT box operations.
               4 threads in other parallel regions.
... done

Basic input checks...
Resetting ngwf_cg_rotate to TRUE for EDFT calculations
... done

Reading geometry and species blocks from file "26/592nano.dat" ...    
  Number of PPD points along a3 set to 1.  This is 
  the default value, it may have been provided also in the input file.
... done
 Writing xyz coordinates to file "26/592nano.xyz" ... done


--------------------------------------------------------------------------------
---------------------------------- INPUT FILE ----------------------------------
--------------------------------------------------------------------------------

task : singlepoint                                                              
do_properties : true                                                            
ddec_classical_hirshfeld T                                                      
dx_format T                                                                     
edft T                                                                          
edft_spin_fix 3                                                                 
output_detail VERBOSE                                                           
write_xyz T                                                                     
dispersion 4                                                                    
xc_functional PBE                                                               
cutoff_energy 830 eV                                                            
paw T                                                                           
geom_disp_tol 0.015 bohr                                                        
geom_energy_tol 1.5E-6 hartree                                                  
geom_force_tol 0.003 "ha/bohr"                                                  
EDFT_MAXIT 30                                                                   
pdos_max_l = 2                                                                  
dos_smear  0.1 eV                                                               
popn_calculate T                                                                
PDOS_PSEUDOATOMIC T                                                             
PDOS_REDUCE_SWS F                                                               
PDOS_CONSTRUCT_BASIS F                                                          
PDOS_LOWDIN T                                                                   
PDOS_ORTH_ATOM_BLOCKS F                                                         
PDOS_LCAO_OPTIMIZE F                                                            
pdos_optados_output T                                                           
homo_plot 0                                                                     
lumo_plot 0                                                                     
homo_dens_plot -1                                                               
lumo_dens_plot -1                                                               
%BLOCK SPECIES                                                                  
C C 6 4 9.0                                                                     
H H 1 1 9.0                                                                     
Li Li 3 5 9.0                                                                   
%ENDBLOCK SPECIES                                                               
%BLOCK SPECIES_POT                                                              
C "~/pp/paw/c_pbe_abinit.paw"                                                   
H "~/pp/paw/h_pbe_abinit.paw"                                                   
Li "~/pp/paw/li_pbe_abinit.paw"                                                 
%ENDBLOCK SPECIES_POT                                                           
%BLOCK SPECIES_ATOMIC_SET                                                       
C "SOLVE conf=2s2 2p2"                                                          
H "SOLVE conf=1s1"                                                              
Li "SOLVE conf=1s2 2s1 2p0"                                                     
%ENDBLOCK SPECIES_ATOMIC_SET                                                    
%BLOCK SPECIES_LDOS_GROUPS                                                      
C                                                                               
H                                                                               
Li                                                                              
%ENDBLOCK SPECIES_LDOS_GROUPS                                                   
%BLOCK LATTICE_CART                                                             
94.486315650000      0.000000000000       0.000000000000                        
0.000000000000       94.486315650000      0.000000000000                        
0.000000000000       0.000000000000       94.486315650000                       
%ENDBLOCK LATTICE_CART                                                          
%BLOCK POSITIONS_ABS                                                            
C 45.502834 50.686200 30.732417                                                 
C 45.446947 50.591443 36.794752                                                 
C 46.840603 53.029963 30.715920                                                 
C 48.140530 50.580831 36.793952                                                 
C 49.564844 48.370196 30.704067                                                 
C 49.477901 48.241137 36.775225                                                 
C 50.901636 50.711178 30.684753                                                 
C 52.173663 48.228206 36.791170                                                 
C 45.474160 55.357346 30.631592                                                 
C 45.461441 55.266124 36.803882                                                 
C 46.808524 57.699225 30.480113                                                 
C 48.153132 55.256353 36.806606                                                 
C 49.538679 53.039033 30.685138                                                 
C 49.490810 52.915997 36.806506                                                 
C 50.873869 55.381107 30.539423                                                 
C 52.183288 52.906450 36.823377                                                 
C 45.390360 50.478704 43.003368                                                 
C 45.373140 50.420269 49.070706                                                 
C 46.737973 52.810988 43.016924                                                 
C 48.070420 50.428413 49.100901                                                 
C 49.428128 48.148888 42.966437                                                 
C 49.426777 48.097060 49.149282                                                 
C 50.775469 50.480619 42.982802                                                 
C 52.126192 48.109114 49.283050                                                 
C 45.392897 55.143753 43.041090                                                 
C 45.354094 55.091585 49.187000                                                 
C 46.742851 57.479977 43.054579                                                 
C 48.048979 55.099636 49.227307                                                 
C 49.432563 52.810448 43.010157                                                 
C 49.405433 52.772881 49.179890                                                 
C 50.784065 55.144271 43.025534                                                 
C 52.101304 52.784963 49.320321                                                 
C 57.659601 48.400804 30.215629                                                 
C 57.540945 48.202763 36.881579                                                 
C 58.987014 50.732393 30.007612                                                 
C 60.259724 48.189062 37.017665                                                 
C 57.514356 48.162696 42.828497                                                 
C 57.503445 48.141121 49.739669                                                 
C 58.871561 50.483281 42.804886                                                 
C 60.234811 48.164129 49.950872                                                 
C 53.602379 50.722886 30.537720                                                 
C 53.523436 50.562866 36.828063                                                 
C 54.926974 53.060510 30.363143                                                 
C 56.215403 50.552212 36.884585                                                 
C 53.473863 50.483114 42.960969                                                 
C 53.458675 50.453638 49.375561                                                 
C 54.819338 52.811028 42.975036                                                 
C 56.144311 50.467224 49.626906                                                 
C 57.686649 43.742843 30.162461                                                 
C 57.554593 43.533785 36.779975                                                 
C 59.025445 46.061453 30.112384                                                 
C 60.252359 43.534633 36.771655                                                 
C 57.526212 43.504220 42.787341                                                 
C 57.531371 43.477944 49.950837                                                 
C 58.870324 45.831615 42.745714                                                 
C 60.237491 43.513092 50.225041                                                 
C 53.619826 46.060561 30.469097                                                 
C 53.509731 45.890677 36.773097                                                 
C 54.965989 48.396637 30.450071                                                 
C 56.206951 45.881319 36.797459                                                 
C 53.469082 45.822524 42.896586                                                 
C 53.481380 45.789557 49.446037                                                 
C 54.821637 48.155517 42.905631                                                 
C 56.175760 45.813817 49.680305                                                 
C 57.583420 57.733988 29.841570                                                 
C 57.578718 57.572860 36.990601                                                 
C 58.906199 60.093266 29.567063                                                 
C 60.295062 57.548947 37.041914                                                 
C 57.528580 57.476927 43.003474                                                 
C 57.467511 57.474313 49.866427                                                 
C 58.870716 59.822570 43.042759                                                 
C 60.170397 57.472263 49.960340                                                 
C 45.404792 64.677695 29.728433                                                 
C 45.491650 64.631123 36.848985                                                 
C 46.759240 67.012671 29.448101                                                 
C 48.180265 64.631425 36.858104                                                 
C 49.464402 62.353185 29.908746                                                 
C 49.534079 62.267569 36.884936                                                 
C 50.830291 64.718176 29.584809                                                 
C 52.231555 62.257420 36.993282                                                 
C 45.397698 64.485369 42.929371                                                 
C 45.336790 64.407392 50.042621                                                 
C 46.774976 66.823846 42.797482                                                 
C 48.022364 64.412965 50.099329                                                 
C 49.437625 62.144807 43.000386                                                 
C 49.375272 62.085206 49.877168                                                 
C 50.813152 64.506767 42.965075                                                 
C 52.059231 62.101816 50.021200                                                 
C 53.535679 60.041749 30.038288                                                 
C 53.549302 59.916603 36.937916                                                 
C 54.881793 62.407891 29.789584                                                 
C 56.248804 59.907817 37.005116                                                 
C 53.484925 59.797054 42.950592                                                 
C 53.415295 59.780115 49.844777                                                 
C 54.849911 62.163210 42.818469                                                 
C 56.125841 59.786399 49.960775                                                 
C 57.617542 53.064585 30.071924                                                 
C 57.558958 52.895459 36.980291                                                 
C 58.946992 55.422501 29.824423                                                 
C 60.289984 52.890732 37.146509                                                 
C 57.521664 52.813332 42.899331                                                 
C 57.467382 52.816368 49.817664                                                 
C 58.874448 55.163069 42.936594                                                 
C 60.192601 52.823997 50.124940                                                 
C 45.445094 60.020002 30.272867                                                 
C 45.476033 59.942161 36.809444                                                 
C 46.780314 62.349554 29.985314                                                 
C 48.171955 59.935120 36.825862                                                 
C 49.506333 57.707683 30.428145                                                 
C 49.506980 57.592565 36.823998                                                 
C 50.838744 60.039043 30.154910                                                 
C 52.197677 57.583069 36.851964                                                 
C 45.401078 59.809697 43.046791                                                 
C 45.339511 59.750485 49.535972                                                 
C 46.756705 62.144507 43.009454                                                 
C 48.037190 59.762431 49.579489                                                 
C 49.436992 57.478422 43.040993                                                 
C 49.390096 57.438488 49.419640                                                 
C 50.784810 59.811171 43.008605                                                 
C 52.077266 57.446061 49.550577                                                 
C 53.561844 55.388883 30.372850                                                 
C 53.531798 55.237994 36.849553                                                 
C 54.885595 57.730493 30.111123                                                 
C 56.226124 55.223880 36.924999                                                 
C 53.473470 55.141857 43.011411                                                 
C 53.432213 55.120000 49.495474                                                 
C 54.827644 57.478520 42.996716                                                 
C 56.126901 55.133346 49.713684                                                 
H 27.357979 41.249624 29.793313                                                 
H 28.238879 39.552392 36.468151                                                 
H 27.193775 41.150032 42.471149                                                 
H 28.216410 39.292884 50.114396                                                 
H 41.903386 30.260617 29.232779                                                 
C 42.928553 32.050224 29.347307                                                 
H 44.373688 30.145413 37.039796                                                 
H 41.721143 30.023518 42.861084                                                 
C 42.756391 31.813498 42.858985                                                 
H 44.431445 30.001124 50.023534                                                 
H 29.703220 37.194758 29.620477                                                 
C 30.719369 38.996080 29.656197                                                 
H 32.250975 37.204745 36.766104                                                 
H 33.767102 34.878656 29.260059                                                 
C 34.793367 36.666951 29.405661                                                 
H 29.510166 37.083336 42.505287                                                 
C 30.546727 38.870262 42.583546                                                 
H 32.279658 36.955404 50.203997                                                 
H 33.551238 34.700249 42.618259                                                 
C 34.594590 36.481889 42.695921                                                 
H 37.841591 32.571428 29.087957                                                 
C 38.856206 34.361921 29.278431                                                 
H 40.326124 32.490638 36.934165                                                 
H 37.646165 32.336956 42.699082                                                 
C 38.669118 34.131534 42.749731                                                 
H 40.390570 32.322407 50.206131                                                 
H 46.595780 30.286780 29.431416                                                 
H 46.403771 30.058365 42.985185                                                 
H 25.871551 48.265153 37.248619                                                 
C 27.932629 48.273603 37.094549                                                 
H 25.824460 48.021986 50.452301                                                 
C 27.887013 48.035430 50.311388                                                 
H 25.882752 43.582876 36.779531                                                 
H 27.345236 45.908065 29.483067                                                 
C 27.951397 43.577814 36.787883                                                 
H 25.850653 43.348052 50.274900                                                 
H 27.185774 45.824463 42.673050                                                 
C 27.916246 43.351210 50.213913                                                 
H 25.921396 57.692423 37.049636                                                 
H 27.249795 59.930856 29.590730                                                 
C 27.989079 57.682754 37.033550                                                 
H 25.806292 57.394214 50.262382                                                 
H 27.210825 59.845810 42.878708                                                 
C 27.873691 57.404242 50.243333                                                 
H 25.875618 53.003581 37.117370                                                 
H 27.273270 55.249328 29.521971                                                 
C 27.939832 52.981262 37.038392                                                 
H 25.801977 52.708891 50.386314                                                 
H 27.194383 55.166869 42.798729                                                 
C 27.865324 52.707650 50.274789                                                 
C 29.425536 41.239481 29.748850                                                 
C 29.257435 41.345594 36.616940                                                 
C 30.713488 43.604572 29.766188                                                 
C 31.950658 41.273873 36.684236                                                 
C 33.417394 38.943251 29.578669                                                 
C 33.298000 38.990089 36.747937                                                 
C 34.758226 41.303475 29.801118                                                 
C 35.962072 38.921451 36.926985                                                 
C 29.409724 45.921455 29.641188                                                 
C 29.236867 45.941835 36.981255                                                 
C 30.687768 48.254462 29.630117                                                 
C 31.955878 45.932522 36.842223                                                 
C 33.410545 43.614211 29.892073                                                 
C 33.298191 43.615972 36.748242                                                 
C 34.749906 45.960187 30.047874                                                 
C 35.999514 43.610664 36.761332                                                 
C 29.258873 41.129832 42.574929                                                 
C 29.236237 41.090621 50.123694                                                 
C 30.547969 43.502072 42.632289                                                 
C 31.929778 41.032208 50.053809                                                 
C 33.237494 38.783635 42.638063                                                 
C 33.308969 38.746029 50.086232                                                 
C 34.586795 41.146646 42.767102                                                 
C 35.969204 38.711756 50.128302                                                 
C 29.249434 45.824594 42.806743                                                 
C 29.191088 45.733996 50.212516                                                 
C 30.536738 48.151954 42.897185                                                 
C 31.917581 45.722945 50.003455                                                 
C 33.258089 43.479237 42.792767                                                 
C 33.266190 43.399319 49.941459                                                 
C 34.606678 45.823468 42.926979                                                 
C 35.976416 43.400033 49.753525                                                 
C 41.512216 39.020525 29.881424                                                 
C 41.373717 38.925274 36.791615                                                 
C 42.847163 41.344779 30.190854                                                 
C 44.053548 38.917443 36.800050                                                 
C 41.343797 38.804021 42.894049                                                 
C 41.397052 38.754903 49.862281                                                 
C 42.689576 41.145093 42.970590                                                 
C 44.073946 38.755607 49.741856                                                 
C 37.469415 41.317205 29.922657                                                 
C 37.334811 41.287059 36.813676                                                 
C 38.802901 43.653481 30.225352                                                 
C 40.034699 41.265513 36.777881                                                 
C 37.299022 41.141498 42.885307                                                 
C 37.326386 41.085686 49.858319                                                 
C 38.649266 43.478136 42.976963                                                 
C 40.021375 41.078372 49.689396                                                 
C 41.498726 34.344633 29.391772                                                 
C 41.359913 34.278533 36.843026                                                 
C 42.866684 36.695898 29.664136                                                 
C 44.017695 34.232690 37.006096                                                 
C 41.342132 34.103167 42.759265                                                 
C 41.417060 34.116011 50.104150                                                 
C 42.705179 36.456870 42.835034                                                 
C 44.078206 34.081951 50.019683                                                 
C 37.472928 36.625150 29.417635                                                 
C 37.332775 36.627294 36.836749                                                 
C 38.828386 38.998663 29.731699                                                 
C 39.992191 36.564567 36.808361                                                 
C 37.272538 36.413720 42.736347                                                 
C 37.360432 36.428659 49.989183                                                 
C 38.644832 38.797544 42.855574                                                 
C 40.042109 36.389965 50.143973                                                 
C 41.468343 48.331118 30.601496                                                 
C 41.401024 48.269377 36.770933                                                 
C 42.803868 50.673412 30.677740                                                 
C 44.095308 48.259995 36.778865                                                 
C 41.349504 48.145281 43.018531                                                 
C 41.336041 48.075064 49.181664                                                 
C 42.696263 50.478178 43.016795                                                 
C 44.033585 48.079306 49.104385                                                 
C 29.338387 55.256969 29.652591                                                 
C 29.255971 55.306810 37.051041                                                 
C 30.621875 57.597063 29.686505                                                 
C 31.979393 55.312641 36.961048                                                 
C 33.377063 52.960927 29.924866                                                 
C 33.326466 52.955723 36.858149                                                 
C 34.700700 55.289249 30.030902                                                 
C 36.025554 52.951672 36.785552                                                 
C 29.260985 55.157486 42.887292                                                 
C 29.162388 55.033959 50.214686                                                 
C 30.558636 57.480445 42.891925                                                 
C 31.879486 55.055681 50.011813                                                 
C 33.281553 52.825077 42.905225                                                 
C 33.238553 52.711049 49.827864                                                 
C 34.624888 55.145971 42.952918                                                 
C 35.931588 52.724395 49.536168                                                 
C 37.409830 50.645193 30.376905                                                 
C 37.363316 50.613313 36.755603                                                 
C 38.745052 52.989212 30.453702                                                 
C 40.062653 50.606379 36.767017                                                 
C 37.310578 50.481689 43.011442                                                 
C 37.282141 50.398586 49.400607                                                 
C 38.659074 52.814443 43.021852                                                 
C 39.979885 50.405183 49.214264                                                 
C 41.491598 43.665549 30.358237                                                 
C 41.387883 43.596646 36.756246                                                 
C 42.830085 46.005666 30.557549                                                 
C 44.082644 43.585875 36.747816                                                 
C 41.342773 43.476217 42.999355                                                 
C 41.355484 43.407367 49.414957                                                 
C 42.692928 45.812418 43.008653                                                 
C 44.054756 43.411019 49.324248                                                 
C 29.365499 50.591239 29.761846                                                 
C 29.214290 50.623942 37.036992                                                 
C 30.645183 52.942353 29.629097                                                 
C 31.962987 50.619151 36.874492                                                 
C 33.405472 48.272679 29.938944                                                 
C 33.310500 48.283243 36.807965                                                 
C 34.725004 50.627419 30.107032                                                 
C 36.011493 48.283907 36.749165                                                 
C 29.254174 50.485337 42.874117                                                 
C 29.161399 50.361208 50.236343                                                 
C 30.543753 52.821723 42.768380                                                 
C 31.901745 50.374837 49.971619                                                 
C 33.268203 48.144171 42.938415                                                 
C 33.259525 48.060292 49.822350                                                 
C 34.614633 50.481548 42.966838                                                 
C 35.945372 48.064262 49.551070                                                 
C 37.443740 45.977710 30.275878                                                 
C 37.355780 45.947030 36.754689                                                 
C 38.770624 48.314300 30.453175                                                 
C 40.045315 45.936889 36.761191                                                 
C 37.306960 45.815795 42.986118                                                 
C 37.306095 45.734793 49.517886                                                 
C 38.653643 48.144475 43.018792                                                 
C 39.996858 45.737837 49.338794                                                 
C 45.543421 32.065124 29.457183                                                 
C 45.424714 31.924843 36.988708                                                 
C 46.934890 34.368752 29.589533                                                 
C 48.024949 31.907028 36.983992                                                 
H 49.056777 30.115248 37.015958                                                 
H 50.640225 32.640126 29.428338                                                 
C 45.552476 36.704380 29.744623                                                 
C 45.399402 36.569248 36.897285                                                 
C 46.905104 39.046099 29.992833                                                 
C 48.080989 36.547877 36.926668                                                 
C 49.603197 34.423937 29.572529                                                 
C 49.445336 34.193945 37.009104                                                 
C 50.961934 36.706974 29.604214                                                 
C 52.115908 34.214111 37.016136                                                 
C 45.349416 31.835679 42.932824                                                 
C 45.476570 31.784423 50.048845                                                 
C 46.740698 34.135348 42.899785                                                 
C 48.070313 31.774394 50.121772                                                 
H 49.113761 29.989663 50.154738                                                 
H 50.433071 32.384138 42.777385                                                 
C 45.385100 36.467859 42.889423                                                 
C 45.428134 36.418622 49.900979                                                 
C 46.733847 38.810384 42.900451                                                 
C 48.105027 36.419451 49.961557                                                 
C 49.402893 34.177753 42.839190                                                 
C 49.475231 34.072878 50.158992                                                 
C 50.776303 36.452516 42.742847                                                 
C 52.148871 34.110394 50.209859                                                 
H 53.122756 32.411381 37.092012                                                 
H 53.180090 32.323373 50.326537                                                 
C 57.670844 39.125440 29.806893                                                 
C 57.570008 38.856004 37.022551                                                 
C 59.035379 41.404693 30.050008                                                 
C 60.253053 38.926584 36.828020                                                 
C 57.502497 38.855922 42.818885                                                 
C 57.563098 38.790068 50.261862                                                 
C 58.872138 41.146866 42.800032                                                 
C 60.252815 38.884072 50.368547                                                 
C 45.526045 46.017960 30.613227                                                 
C 45.437085 45.920668 36.757777                                                 
C 46.866347 48.357127 30.713939                                                 
C 48.126877 45.909255 36.747725                                                 
C 49.584753 43.702239 30.453045                                                 
C 49.468378 43.563571 36.731128                                                 
C 50.928084 46.042282 30.582742                                                 
C 52.162379 43.552901 36.739016                                                 
C 45.386037 45.813096 42.986512                                                 
C 45.392883 45.749798 49.165274                                                 
C 46.735076 48.145381 42.984200                                                 
C 48.090514 45.758103 49.183222                                                 
C 49.428620 43.482805 42.926023                                                 
C 49.451636 43.426759 49.349978                                                 
C 50.776707 45.816396 42.933595                                                 
C 52.144421 43.443284 49.482766                                                 
C 53.641860 41.420472 30.067077                                                 
C 53.507138 41.213104 36.793884                                                 
C 54.978319 43.733778 30.252012                                                 
C 56.218012 41.207516 36.843215                                                 
C 53.474449 41.167576 42.812848                                                 
C 53.499244 41.120809 49.767323                                                 
C 54.814075 43.490620 42.841643                                                 
C 56.209442 41.142324 50.001392                                                 
H 57.227623 34.768415 37.351601                                                 
H 58.709600 37.339798 29.626946                                                 
H 57.262417 34.705335 50.411374                                                 
H 58.543303 37.070941 42.727886                                                 
C 45.545257 41.361661 30.245803                                                 
C 45.416860 41.249628 36.757655                                                 
C 46.884966 43.689938 30.468273                                                 
C 48.114489 41.237365 36.751387                                                 
C 49.587389 39.060895 29.928818                                                 
C 49.454489 38.892572 36.832563                                                 
C 50.940961 41.386940 30.176802                                                 
C 52.156515 38.877818 36.863553                                                 
C 45.383559 41.148963 42.952099                                                 
C 45.412644 41.090358 49.491796                                                 
C 46.730730 43.477704 42.960863                                                 
C 48.108610 41.094552 49.499728                                                 
C 49.412493 38.816601 42.839899                                                 
C 49.460311 38.767938 49.773137                                                 
C 50.776810 41.151216 42.872120                                                 
C 52.159226 38.775615 49.893709                                                 
C 53.639616 36.763155 29.756510                                                 
C 53.523600 36.493345 37.045424                                                 
C 55.012037 39.080282 29.723572                                                 
C 56.199347 36.551248 37.159330                                                 
C 53.459281 36.510482 42.954174                                                 
C 53.537918 36.400060 50.166921                                                 
C 54.844919 38.799647 42.734758                                                 
C 56.213956 36.479538 50.261162                                                 
H 61.278249 37.130743 36.769676                                                 
H 62.732797 39.669407 30.359724                                                 
H 61.292452 37.100640 50.485901                                                 
H 62.583220 39.420498 42.765625                                                 
H 28.294106 61.729967 37.109695                                                 
H 28.150770 61.449745 50.316651                                                 
C 29.316831 59.954081 29.597812                                                 
C 29.306104 59.926931 37.055663                                                 
C 30.608463 62.231412 29.527286                                                 
C 32.005739 59.990653 37.085023                                                 
C 33.338981 57.630613 29.827855                                                 
C 33.338519 57.627191 36.947507                                                 
C 34.669650 59.963126 29.786698                                                 
C 36.044070 57.627488 36.851748                                                 
H 29.569729 64.017009 29.460026                                                 
H 32.345755 64.064137 37.067673                                                 
C 33.310319 62.324484 29.569100                                                 
C 33.373714 62.273810 36.948382                                                 
C 34.642812 64.610277 29.502138                                                 
C 36.031781 62.316555 36.898388                                                 
C 29.276733 59.854525 42.885080                                                 
C 29.174173 59.652151 50.273057                                                 
C 30.580513 62.122164 42.853358                                                 
C 31.878151 59.726831 50.256911                                                 
C 33.280791 57.498755 42.900152                                                 
C 33.220983 57.377340 49.984899                                                 
C 34.624676 59.826262 42.886289                                                 
C 35.921718 57.395956 49.722049                                                 
H 29.548758 63.912765 42.835304                                                 
H 32.191102 63.806386 50.290546                                                 
C 33.282832 62.202907 42.836331                                                 
C 33.229236 62.023245 50.139280                                                 
C 34.630346 64.480747 42.833341                                                 
C 35.887693 62.078930 50.002784                                                 
C 41.413391 57.673331 30.400366                                                 
C 41.427441 57.612218 36.806255                                                 
C 42.746527 60.007924 30.244074                                                 
C 44.123185 57.609626 36.804685                                                 
C 41.357762 57.483449 43.039549                                                 
C 41.301548 57.411689 49.394811                                                 
C 42.704807 59.811928 43.033024                                                 
C 43.998105 57.421237 49.339299                                                 
C 37.365854 59.978319 29.986282                                                 
C 37.388085 59.946403 36.863072                                                 
C 38.683164 62.312492 29.838836                                                 
C 40.085084 59.951321 36.852943                                                 
C 37.325231 59.821585 42.952596                                                 
C 37.250712 59.718602 49.776877                                                 
C 38.658047 62.154890 42.909479                                                 
C 39.947530 59.732882 49.652398                                                 
C 41.442068 53.003555 30.608830                                                 
C 41.414823 52.937983 36.784633                                                 
C 42.777171 55.343777 30.582804                                                 
C 44.106827 52.933538 36.799201                                                 
C 41.354773 52.812803 43.028577                                                 
C 41.317389 52.742814 49.170642                                                 
C 42.702915 55.144179 43.041732                                                 
C 44.015078 52.752815 49.108615                                                 
C 37.389698 55.312174 30.277397                                                 
C 37.382238 55.282765 36.799726                                                 
C 38.721799 57.657985 30.253370                                                 
C 40.072804 55.279167 36.786568                                                 
C 37.319185 55.149126 43.007208                                                 
C 37.270214 55.062586 49.483164                                                 
C 38.666088 57.486146 43.012727                                                 
C 39.958429 55.073333 49.307101                                                 
C 41.337428 67.019883 29.579685                                                 
C 41.449675 66.935306 36.954370                                                 
C 42.739553 69.314397 29.503879                                                 
C 44.115302 66.980036 36.956430                                                 
C 41.341465 66.848921 42.846886                                                 
C 41.290432 66.698642 50.241175                                                 
C 42.760647 69.140777 42.851881                                                 
C 43.950331 66.745490 50.225148                                                 
H 37.631011 68.760733 29.488363                                                 
H 40.418345 68.724500 37.067809                                                 
H 37.653564 68.613199 42.810094                                                 
H 40.255286 68.482598 50.406580                                                 
C 41.380201 62.326754 29.952502                                                 
C 41.447820 62.280287 36.913157                                                 
C 42.723556 64.675851 29.739533                                                 
C 44.129856 62.283097 36.836994                                                 
C 41.353716 62.150169 42.960559                                                 
C 41.301578 62.056105 49.877985                                                 
C 42.715646 64.498294 42.917953                                                 
C 43.982700 62.067406 49.795367                                                 
H 33.591412 66.384429 29.355174                                                 
H 33.591065 66.267598 42.795020                                                 
C 37.294163 64.677617 29.591333                                                 
C 37.410389 64.594297 36.939788                                                 
C 38.669903 66.976416 29.573515                                                 
C 40.074696 64.650032 37.054990                                                 
C 37.283159 64.531252 42.829249                                                 
C 37.257306 64.358281 50.113171                                                 
C 38.677849 66.819177 42.844992                                                 
C 39.920472 64.408427 50.218972                                                 
C 61.716324 41.461771 30.177565                                                 
C 61.538531 41.182144 36.688260                                                 
C 63.022042 43.707643 30.058067                                                 
H 63.600376 41.191345 36.527261                                                 
C 61.730998 46.061356 29.852764                                                 
C 61.542539 45.863749 36.904664                                                 
C 63.026017 48.398945 29.567074                                                 
H 63.598962 45.854146 37.158874                                                 
H 65.090085 43.708079 30.103596                                                 
C 61.562625 41.216509 42.764975                                                 
C 61.533767 41.146634 50.346484                                                 
C 62.878797 43.474696 42.682829                                                 
H 63.598943 41.175604 50.453440                                                 
C 61.600582 45.855097 42.663701                                                 
C 61.532818 45.839795 50.075168                                                 
C 62.901855 48.160134 42.653841                                                 
H 63.593404 45.849512 50.243538                                                 
H 64.945069 43.470288 42.628843                                                 
C 61.664706 55.424595 29.634489                                                 
C 61.581443 55.211950 37.097247                                                 
C 62.930150 57.802789 29.577758                                                 
H 63.646755 55.210328 37.203826                                                 
H 65.049187 53.140104 29.503549                                                 
C 61.595246 55.153722 42.895559                                                 
C 61.471358 55.166257 50.047124                                                 
C 62.875839 57.527170 43.032726                                                 
H 63.539261 55.177926 50.126657                                                 
H 64.967541 52.844311 42.766043                                                 
C 61.727774 50.741251 29.689818                                                 
C 61.577136 50.541420 36.962109                                                 
C 62.988305 53.105153 29.638147                                                 
H 65.073520 48.393715 29.277748                                                 
C 61.617303 50.482657 42.716956                                                 
C 61.504115 50.497033 50.059058                                                 
C 62.899920 52.834688 42.795116                                                 
H 64.968571 48.151315 42.572509                                                 
H 41.699510 71.101018 29.511982                                                 
H 44.501004 71.050324 37.299002                                                 
H 41.727931 70.931625 42.815159                                                 
H 44.304198 70.828873 50.433375                                                 
C 45.344950 69.309867 29.379602                                                 
C 45.528756 69.268896 37.118913                                                 
H 46.371042 71.093605 29.169396                                                 
C 48.156910 69.280554 37.090304                                                 
C 49.433369 66.999271 29.591648                                                 
C 49.575334 66.984851 36.965286                                                 
H 50.445851 68.796505 29.422476                                                 
C 52.246795 66.931402 36.980243                                                 
H 49.179844 71.069528 37.244808                                                 
C 45.359344 69.128974 42.822789                                                 
C 45.352835 69.048796 50.368051                                                 
H 46.407898 70.909848 42.750250                                                 
C 47.968333 69.059292 50.438789                                                 
C 49.434729 66.788038 42.922676                                                 
C 49.396855 66.763132 50.355299                                                 
H 50.464296 68.577798 42.811898                                                 
C 52.042044 66.742417 50.434340                                                 
H 48.997456 70.847590 50.557059                                                 
H 57.325544 66.341441 37.124290                                                 
H 57.129268 66.211751 50.448483                                                 
H 53.282173 68.719922 37.008073                                                 
H 53.060137 68.533476 50.604730                                                 
C 57.533842 62.375453 29.659609                                                 
C 57.605296 62.273807 37.086287                                                 
H 58.551796 64.164330 29.463586                                                 
C 60.304423 62.183208 37.091847                                                 
C 57.516964 62.099774 42.968005                                                 
C 57.468967 62.146409 50.165513                                                 
H 58.557339 63.887315 42.927721                                                 
C 60.169544 62.083628 50.093459                                                 
C 53.492939 64.682332 29.657911                                                 
C 53.622197 64.632915 37.070627                                                 
C 56.272560 64.562549 37.087188                                                 
C 53.472186 64.452071 42.921971                                                 
C 53.419342 64.474562 50.309261                                                 
C 56.099893 64.424157 50.321305                                                 
C 61.606635 60.041362 29.533681                                                 
C 61.594484 59.907234 37.065875                                                 
H 62.614206 61.844953 29.451319                                                 
H 63.659541 59.884843 37.096676                                                 
H 64.997707 57.817358 29.545235                                                 
H 61.344468 63.967952 37.129521                                                 
C 61.566814 59.758280 43.109096                                                 
C 61.459291 59.843125 49.984205                                                 
H 62.579541 61.558757 43.183003                                                 
H 63.526434 59.830244 49.942608                                                 
H 64.944385 57.520010 43.047106                                                 
H 61.186945 63.882356 50.147396                                                 
H 63.566329 50.511138 50.222453                                                 
H 36.337294 34.637105 50.151597                                                 
H 36.220498 66.139426 50.294233                                                 
H 27.189586 50.487495 42.747171                                                 
H 54.507607 66.237755 42.804904                                                 
H 63.621356 50.525809 37.311184                                                 
H 54.489427 34.721404 42.801866                                                 
H 36.290260 34.843706 36.935486                                                 
H 36.376601 66.381375 37.065896                                                 
H 54.518126 66.467998 29.462241                                                 
H 27.308951 50.576461 29.524294                                                 
H 54.675394 34.995184 29.449558                                                 
Li 58.925246 60.082182 33.530641                                                
Li 30.358292 43.500333 46.587319                                                
Li 43.992166 34.155163 33.047746                                                
Li 46.834012 66.977912 46.746285                                                
Li 60.318004 43.750269 46.263181                                                
Li 31.904108 60.176548 33.151778                                                
Li 51.317104 64.651509 33.467861                                                
Li 39.757419 65.046459 33.187447                                                
Li 60.463929 52.684607 46.287680                                                
Li 30.081509 52.676401 46.634498                                                
Li 35.525275 38.643514 46.251381                                                
Li 55.347834 38.488526 46.607969                                                
Li 35.943112 38.514430 33.072406                                                
Li 50.785880 36.234741 33.464749                                                
Li 40.123525 36.052906 46.286567                                                
Li 50.799119 35.906653 46.593911                                                
Li 54.922726 62.543262 46.669821                                                
Li 39.823024 64.723675 46.361034                                                
Li 30.321391 53.206519 33.491572                                                
Li 30.089790 47.966643 33.462396                                                
Li 31.978268 59.932969 46.347464                                                
Li 60.632874 53.319291 33.288763                                                
Li 55.715622 38.086964 33.441067                                                
Li 62.057152 48.223683 33.451687                                                
Li 46.722957 67.498464 33.419050                                                
Li 60.740280 60.490320 46.742520                                                
%ENDBLOCK POSITIONS_ABS                                                         

--------------------------------------------------------------------------------
-------------------------------- END INPUT FILE --------------------------------
--------------------------------------------------------------------------------


 
<<<<<<<<<<<<<<<<<<<<<<<<<<<<<<<<< Full system >>>>>>>>>>>>>>>>>>>>>>>>>>>>>>>>>>
<<<<<<<<<<<<<<<<<<<<<<<<<<< PAW Dataset information >>>>>>>>>>>>>>>>>>>>>>>>>>>
File: ~/pp/paw/c_pbe_abinit.paw; rc = 1.25 bohr; shape type =  3; rshape = 1.25 bohr;
  Atomic number:  6;  ionic charge:  4.000000
    Partial Wave 1: l = 0
    Partial Wave 2: l = 0
    Partial Wave 3: l = 1
    Partial Wave 4: l = 1
  Core charge supplied for Nonlinear Core Corrections
File: ~/pp/paw/h_pbe_abinit.paw; rc = 0.90 bohr; shape type =  3; rshape = 0.90 bohr;
  Atomic number:  1;  ionic charge:  1.000000
    Partial Wave 1: l = 0
    Partial Wave 2: l = 0
File: ~/pp/paw/li_pbe_abinit.paw; rc = 1.42 bohr; shape type =  3; rshape = 1.42 bohr;
  Atomic number:  3;  ionic charge:  3.000000
    Partial Wave 1: l = 0
    Partial Wave 2: l = 0
    Partial Wave 3: l = 0
    Partial Wave 4: l = 1
    Partial Wave 5: l = 1
<<<<<<<<<<<<<<<<<<<<<<<<<<<<<<<<<<<<<<< >>>>>>>>>>>>>>>>>>>>>>>>>>>>>>>>>>>>>>>

-------------------------- Atom counting information ---------------------------
Symbol    Natoms    Nngwfs    Nprojs
  C        484      1936      3872
  H        108       108       216
  Li        26       130       234
.......   ......    ......    ......
Totals:    618      2174      4322
--------------------------------------------------------------------------------

=============================== PSINC grid sizes ===============================
                      Simulation cell:  189 x 189 x 189
                              FFT-box:  117 x 117 x 117
                                  PPD:    7 x   7 x   1
Grid space d1=  0.499927596032a0 (KE cutoff=  30.39413Eh = 827.06648eV)
Grid space d2=  0.499927596032a0 (KE cutoff=  30.39413Eh = 827.06648eV)
Grid space d3=  0.499927596032a0 (KE cutoff=  30.39413Eh = 827.06648eV)
================================================================================
  
WARNING in cell_grid_distribute:
Average of less than one 23-slab per node, so workload cannot be
equally balanced between nodes.

********************* Fourier parallelisation information **********************
       Coarse grid (whole simulation cell) dimensions:    189   189   189
          Real-space ('12') slabs/node (min max mean):      1     2     1
         Recip-space ('23') slabs/node (min max mean):      0     1     0
********************************************************************************

********************* Fourier parallelisation information **********************
       Double grid (whole simulation cell) dimensions:    378   378   378
          Real-space ('12') slabs/node (min max mean):      2     3     2
         Recip-space ('23') slabs/node (min max mean):      1     2     1
********************************************************************************

Atom SCF Calculation for C  : Z (AE atom) =   6 : Z (PS atom) =   4
Config String: 2s2 2p2
Orbitals (num,occ):  2     2.00 2.00
Orbitals   (num,l):  2        0    1
Real-space Grid (nr,dr,rmax): 1377    0.0065406977    9.0000000000
Spherical Bessel Basis (nsws,lmax,cutoff):   37    2  183.0099912382
Confining potential (l,width,scale):  0    3.0000000000  100.0000000000
Confining potential (l,width,scale):  1    3.0000000000  100.0000000000
  1         -5.4350126632   -1.2715272878    4.5135247139   -1.5681949477
  2         -5.3876836850   -1.3562195125    4.4235426751   -1.5380057521
  3         -5.3928844498   -1.3758175853    4.4021699684   -1.5318377811
  4         -5.3988962903   -1.3800385428    4.3975423583   -1.5307324410
  5         -5.4018428823   -1.3823489590    4.3950111904   -1.5301555648
  6         -5.4033571720   -1.3835805046    4.3936635548   -1.5298576834
  7         -5.4041480647   -1.3842324820    4.3929512000   -1.5297032953
  8         -5.4045641108   -1.3845769138    4.3925755232   -1.5296229456
  9         -5.4047838258   -1.3847587737    4.3923775340   -1.5295810042
 10         -5.4049001347   -1.3848548089    4.3922731819   -1.5295590658
 11         -5.4049618018   -1.3849055476    4.3922181562   -1.5295475724
 12         -5.4049945351   -1.3849323732    4.3921891206   -1.5295415432
 13         -5.4050119258   -1.3849465673    4.3921737867   -1.5295383767
 14         -5.4050211723   -1.3849540841    4.3921656816   -1.5295367119
 15         -5.4050260920   -1.3849580684    4.3921613935   -1.5295358358
 16         -5.4050287113   -1.3849601822    4.3921591228   -1.5295353742
 17         -5.4050301068   -1.3849613045    4.3921579192   -1.5295351307
 18         -5.4050308507   -1.3849619010    4.3921572806   -1.5295350022
 19         -5.4050312476   -1.3849622183    4.3921569415   -1.5295349343
 20         -5.4050314594   -1.3849623873    4.3921567612   -1.5295348984
 21         -5.4050315725   -1.3849624773    4.3921566653   -1.5295348794
 22         -5.4050316330   -1.3849625253    4.3921566143   -1.5295348693
Atom SCF converged after  22 iterations to a total energy of     -5.40503163

Atom SCF Calculation for H  : Z (AE atom) =   1 : Z (PS atom) =   1
Config String: 1s1
Orbitals (num,occ):  1     1.00
Orbitals   (num,l):  1        0
Real-space Grid (nr,dr,rmax): 1377    0.0065406977    9.0000000000
Spherical Bessel Basis (nsws,lmax,cutoff):   37    1  183.0099912382
Confining potential (l,width,scale):  0    3.0000000000  100.0000000000
  1         -0.3605254152   -0.2399954029    0.2820952946   -0.2424203210
  2         -0.4156854077   -0.2398249290    0.2871789324   -0.2464796203
  3         -0.4412552402   -0.2379720642    0.2899127187   -0.2499011370
  4         -0.4517265951   -0.2371980236    0.2908966173   -0.2514141636
  5         -0.4557775773   -0.2369735141    0.2911607883   -0.2519713623
  6         -0.4573363459   -0.2369240355    0.2912108681   -0.2521663171
  7         -0.4579443228   -0.2369187864    0.2912112833   -0.2522344454
  8         -0.4581858602   -0.2369215483    0.2912049187   -0.2522587615
  9         -0.4582834939   -0.2369242589    0.2912002081   -0.2522677042
 10         -0.4583235236   -0.2369258837    0.2911975892   -0.2522710965
 11         -0.4583401154   -0.2369267223    0.2911962825   -0.2522724192
 12         -0.4583470483   -0.2369271266    0.2911956643   -0.2522729467
 13         -0.4583499624   -0.2369273145    0.2911953803   -0.2522731607
 14         -0.4583511926   -0.2369274000    0.2911952521   -0.2522732486
 15         -0.4583517136   -0.2369274385    0.2911951948   -0.2522732850
 16         -0.4583519349   -0.2369274556    0.2911951693   -0.2522733002
 17         -0.4583520290   -0.2369274632    0.2911951581   -0.2522733066
Atom SCF converged after  17 iterations to a total energy of     -0.45835203

Atom SCF Calculation for Li : Z (AE atom) =   3 : Z (PS atom) =   3
Config String: 1s2 2s1 2p0
Orbitals (num,occ):  3     2.00 1.00 0.00
Orbitals   (num,l):  3        0    0    1
Real-space Grid (nr,dr,rmax): 1377    0.0065406977    9.0000000000
Spherical Bessel Basis (nsws,lmax,cutoff):   37    2  183.0099912382
Confining potential (l,width,scale):  0    3.0000000000  100.0000000000
Confining potential (l,width,scale):  1    3.0000000000  100.0000000000
  1         -6.0640888065   -4.6655401716    2.5388576516   -0.9989538799
  2         -6.9627542978   -4.0954079129    2.9808988108   -1.1965571426
  3         -7.2692687601   -3.8889996707    3.2029735703   -1.3193883705
  4         -7.3784440298   -3.8322099748    3.2868571989   -1.3711018151
  5         -7.4170278248   -3.8191968371    3.3144974220   -1.3911175539
  6         -7.4303549880   -3.8172386945    3.3228486489   -1.3986896266
  7         -7.4348052089   -3.8175483495    3.3251259310   -1.4015352495
  8         -7.4362242328   -3.8180607346    3.3256233205   -1.4026016384
  9         -7.4366459715   -3.8184145665    3.3256561549   -1.4029998726
 10         -7.4367560626   -3.8186169740    3.3256001574   -1.4031477379
 11         -7.4367765260   -3.8187239825    3.3255481763   -1.4032021548
 12         -7.4367751741   -3.8187782620    3.3255144587   -1.4032219192
 13         -7.4367707398   -3.8188051288    3.3254952336   -1.4032289600
 14         -7.4367680349   -3.8188156035    3.3254870176   -1.4032309087
 15         -7.4367661982   -3.8188217406    3.3254819951   -1.4032318132
 16         -7.4367650112   -3.8188253257    3.3254789583   -1.4032322224
 17         -7.4367642682   -3.8188274151    3.3254771375   -1.4032324006
 18         -7.4367638134   -3.8188286307    3.3254760529   -1.4032324736
 19         -7.4367635392   -3.8188293370    3.3254754103   -1.4032325004
 20         -7.4367633760   -3.8188297469    3.3254750310   -1.4032325080
 21         -7.4367632796   -3.8188299846    3.3254748079   -1.4032325082
Atom SCF converged after  21 iterations to a total energy of     -7.43676328

Determining parallel strategy ...
... using space-filling curve
... NGWF load balancing: max     16;  min     12;  average     14
... Projector load balancing: max     32;  min     24;  average     27
... done
Calculating Ewald energy ...
              Ewald: real-space energy =   36093.553381
        Ewald: reciprocal-space energy =   35344.559521
         Ewald: (sum_charge)**2 Energy =    2797.450156
         Ewald: (sum_charge**2) Energy =     249.763843
                          Ewald Energy =   68390.898904
======================= Empirical dispersion information =======================
Model : Grimme D2
Dispersion Correction Energy: -0.21611755E+01 Hartree
================================================================================
Basis initialisation ...... NGWF spheres initialised
... Projector spheres initialised
... NGWF tight boxes initialised
... Projector tight boxes initialised
... Tight-boxes gathered
... NGWF basis size (local,global):     275134  43850642
... PAW projector initialisation
... done

============================= Charge Augmentation ==============================
                           Aug box size:   13 x  13 x  13
================================================================================

========================== Sparse matrix information ===========================
                        Overlap matrix filling:  37.87%
                        Density kernel filling: 100.00%
              NGWF-Proj overlap matrix filling:  10.68%
                    Aug Overlap matrix filling:  42.08%
                    Hamiltonian matrix filling:  42.08%
                  NGWF diagonal matrix filling:   0.18%
                             KS matrix filling: 100.00% 
                           KSKS matrix filling: 100.00% 
================================================================================

Sparse matrix initialisation ... done
NGWF initialisation ...... done
============ Calculation of NGWF S^-1 using Hotelling algorithm ================ 
         Iteration  |  Frobenius norm and Maximum abs value    (of I-S*S_n^-1)   
               1       0.46275949E+02     0.99608093E+00
               2       0.45945821E+02     0.99219058E+00
               3       0.45339323E+02     0.98449276E+00
               4       0.44303542E+02     0.96940809E+00
               5       0.42725794E+02     0.94034786E+00
               6       0.40626164E+02     0.88591337E+00
               7       0.38079900E+02     0.79216210E+00
               8       0.35142445E+02     0.77143069E+00
               9       0.32057081E+02     0.74592658E+00
              10       0.29080177E+02     0.73248613E+00
              11       0.25891022E+02     0.71113254E+00
              12       0.21824521E+02     0.67238175E+00
              13       0.16508456E+02     0.61131948E+00
              14       0.10357436E+02     0.52262369E+00
              15       0.50170004E+01     0.38880228E+00
              16       0.22041389E+01     0.22164422E+00
              17       0.12607962E+01     0.15853654E+00
              18       0.62632281E+00     0.85534458E-01
              19       0.16610048E+00     0.24979983E-01
              20       0.12396403E-01     0.21308485E-02
              21       0.75982967E-04     0.15505160E-04
              22       0.33779513E-08     0.82097529E-09
              23       0.56815891E-13     0.62172489E-14
================================================================================
Calculating core density ...
================================= Core Density =================================
               Core den box size:   21 x  21 x  21
================================================================================
 ... done
Up spin density kernel initialisation ...... done
Down spin density kernel initialisation ...... done

Writing density kernel to file "26/592nano.dkn" ... done

>>> Optimising kernel for current NGWFs:

--------------------------- Ensemble-DFT optimisation --------------------------
Running ScaLAPACK on  160 processor(s).

--------------------------------------------------------------------------------
  Iter                              Commutator    Free_energy(A=E-TS)     DeltaA
#    0                          0.001145858972   -3012.23442011805491  -3.01E+03

Step                       =       0.381966011250
Energy                     =   -3012.216013208073
Entropy (-TS)              =      -0.018406909857
Free energy (A=E-TS)       =   -3012.234420118055
Est. 0K Energy 0.5*(E+A)   =   -3012.225216663064
Residual Non-orthogonality =       0.000000000000
Residual N_electrons       =      -0.000000000125

Spin          Integrated_Ne            Fermi_level     Delta_Fermi_level
   1      1060.999999999743        -0.243814153749             -2.44E-01
   2      1060.999999999745        -0.243814153758             -2.44E-01

                           Spin 1           |                 Spin 2           |
     Orb |    H-eigenvalues     Occupancies |    H-eigenvalues     Occupancies |
       1 |    -1.8861573088    1.0000000000 |    -1.8861573088    1.0000000000 | 
                          ------                             ------
    1057 |    -0.2540565265    0.9621043156 |    -0.2540565265    0.9621043156 | 
    1058 |    -0.2538606242    0.9597832770 |    -0.2538606242    0.9597832770 | 
    1059 |    -0.2521665641    0.9332352896 |    -0.2521665641    0.9332352896 | 
    1060 |    -0.2521095955    0.9321056559 |    -0.2521095955    0.9321056559 | 
    1061 |    -0.2477440547    0.7757318758 |    -0.2477440547    0.7757318758 | 
                 - Gap at zero temperature - |     - Gap at zero temperature -
    1062 |    -0.2426191777    0.4067677487 |    -0.2426191777    0.4067677487 | 
    1063 |    -0.2334245223    0.0362362473 |    -0.2334245223    0.0362362473 | 
    1064 |    -0.2330720726    0.0325438686 |    -0.2330720726    0.0325438686 | 
    1065 |    -0.2299856605    0.0125340513 |    -0.2299856606    0.0125340513 | 
    1066 |    -0.2278677956    0.0064611756 |    -0.2278677956    0.0064611756 | 
                          ------                             ------
    2174 |     0.5603439598    0.0000000000 |     0.5603439598    0.0000000000 | 

                       |  Abs_value |  Threshold | Converged
     Delta_Free_energy |   3.01E+03 |   1.00E-06 |        No
     Delta_Energy      |   3.01E+03 |   1.00E-04 |        No
     Delta_Entropy     |   1.84E-02 |   1.00E-04 |        No
     Commutator        |   1.15E-03 |   1.00E-05 |        No
     Delta_Fermi_level |   2.44E-01 |   1.00E-03 |        No

  Line search of the free energy minimum:
  Step_type        Step             Free_energy   Predicted_free_energy
.   Initial    0.000000    -3012.23442011805491
.    Trial1    0.381966    -3012.73782979270982
.    Trial2    0.618034    -3010.71053846476070
. Quadratic    0.232097    -3013.05434760007483    -3013.09782212943355

--------------------------------------------------------------------------------
  Iter                              Commutator    Free_energy(A=E-TS)     DeltaA
#    1                          0.000646200329   -3013.05434760007483  -8.20E-01

Step                       =       0.232097464501
Energy                     =   -3013.025263179241
Entropy (-TS)              =      -0.029084421260
Free energy (A=E-TS)       =   -3013.054347600075
Est. 0K Energy 0.5*(E+A)   =   -3013.039805389658
Residual Non-orthogonality =       0.000000000000
Residual N_electrons       =       0.000000000426

Spin          Integrated_Ne            Fermi_level     Delta_Fermi_level
   1      1061.000000000937        -0.226555520711              1.73E-02
   2      1061.000000000944        -0.226555520692              1.73E-02

                           Spin 1           |                 Spin 2           |
     Orb |    H-eigenvalues     Occupancies |    H-eigenvalues     Occupancies |
       1 |    -1.9184904477    1.0000000000 |    -1.9184904476    1.0000000000 | 
                          ------                             ------
    1057 |    -0.2357053636    0.9473145555 |    -0.2357053635    0.9473145555 | 
    1058 |    -0.2346126162    0.9271848986 |    -0.2346126162    0.9271848986 | 
    1059 |    -0.2324607955    0.8658482895 |    -0.2324607955    0.8658482895 | 
    1060 |    -0.2306199868    0.7830376507 |    -0.2306199868    0.7830376507 | 
    1061 |    -0.2286498953    0.6595638527 |    -0.2286498952    0.6595638527 | 
                 - Gap at zero temperature - |     - Gap at zero temperature -
    1062 |    -0.2277740952    0.5950291729 |    -0.2277740952    0.5950291729 | 
    1063 |    -0.2191266654    0.0873964350 |    -0.2191266653    0.0873964350 | 
    1064 |    -0.2190970349    0.0866530481 |    -0.2190970349    0.0866530481 | 
    1065 |    -0.2172445777    0.0502034815 |    -0.2172445777    0.0502034815 | 
    1066 |    -0.2156300697    0.0307693150 |    -0.2156300696    0.0307693150 | 
                          ------                             ------
    2174 |     0.5718442391    0.0000000000 |     0.5718442391    0.0000000000 | 

                       |  Abs_value |  Threshold | Converged
[...]
 C   285 -- C   407       -0.09      0.00      5.41071
 C   313 -- C   319       -0.09      0.00      5.41128
 C   229 -- C   373       -0.09      0.00      5.41132
 C   185 -- C   299       -0.09      0.00      5.41164
 C   199 -- C   241       -0.08     -0.00      5.41173
 C   330 -- C   382       -0.09      0.00      5.41174
 C    88 -- C   560       -0.08     -0.00      5.41184
 C   431 -- C   441       -0.09     -0.00      5.41214
 C    66 -- C   100       -0.09     -0.00      5.41273
 C    99 -- C   121       -0.09      0.00      5.41311
 C   186 -- C   212       -0.08      0.00      5.41334
 C    76 -- C   106       -0.09      0.00      5.41336
 C   183 -- C   237       -0.08     -0.00      5.41344
 C    38 -- C   104       -0.08      0.00      5.41381
 C   318 -- C   380       -0.08     -0.00      5.41390
 C   202 -- C   208       -0.09     -0.00      5.41428
 C   444 -- C   492       -0.08      0.00      5.41457
 C    40 -- C   102       -0.08      0.00      5.41477
 C    87 -- C    93       -0.08      0.00      5.41479
 C   188 -- C   286       -0.08     -0.00      5.41483
 C   231 -- C   241       -0.08     -0.00      5.41497
 C    53 -- C   395       -0.09     -0.00      5.41527
 C    35 -- C   511       -0.08      0.00      5.41535
 C   430 -- C   480       -0.08      0.00      5.41537
 C    85 -- C    95       -0.08      0.00      5.41537
 C    81 -- C    87       -0.09      0.00      5.41561
 C   293 -- C   295       -0.08      0.00      5.41581
 C   338 -- C   380       -0.08     -0.00      5.41587
 C   252 -- C   286       -0.08      0.00      5.41602
 C   416 -- C   476       -0.09      0.00      5.41618
 C   342 -- C   388       -0.08      0.00      5.41642
 C   262 -- C   460       -0.09      0.00      5.41659
 C    62 -- C   368       -0.09      0.00      5.41733
 C    51 -- C    57       -0.09      0.00      5.41738
 H   154 -- Li  607       -0.02     -0.00      5.41765
 C   220 -- C   238       -0.08      0.00      5.41882
 C    77 -- C    91       -0.08      0.00      5.41898
 C    82 -- C   492       -0.09     -0.00      5.41919
 C   105 -- C   477       -0.09      0.00      5.41924
 C    35 -- C   497       -0.08     -0.00      5.41960
 C   205 -- C   263       -0.08      0.00      5.41961
 C   440 -- C   488       -0.08      0.00      5.42022
 C    51 -- C   521       -0.08     -0.00      5.42048
 C   293 -- C   421       -0.09      0.00      5.42064
 C    74 -- C   488       -0.09     -0.00      5.42090
 C   332 -- C   388       -0.08     -0.00      5.42125
 C    79 -- C    89       -0.08      0.00      5.42160
 C   260 -- C   420       -0.09     -0.00      5.42220
 H   587 -- Li  608       -0.02     -0.00      5.42243
 C   185 -- C   235       -0.08      0.00      5.42249
 C    80 -- C   538       -0.08     -0.00      5.42263
 C    67 -- C   511       -0.09     -0.00      5.42314
 C    75 -- C   463       -0.09     -0.00      5.42341
 H   587 -- Li  604       -0.02     -0.00      5.42351
 C    96 -- C   567       -0.08     -0.00      5.42452
 C    36 -- C    98       -0.08      0.00      5.42639
 C    73 -- C    79       -0.08      0.00      5.42755
 C    56 -- C   342       -0.09     -0.00      5.42777
 C   230 -- C   318       -0.09      0.00      5.42778
 C   377 -- C   391       -0.08      0.00      5.42856
 C   189 -- C   255       -0.08      0.00      5.42863
 C   262 -- C   292       -0.08     -0.00      5.42923
 C   103 -- C   525       -0.08     -0.00      5.42934
 C   197 -- C   199       -0.09     -0.00      5.43113
 C   477 -- C   485       -0.08      0.00      5.43142
 C   252 -- C   406       -0.09     -0.00      5.43146
 C   224 -- C   242       -0.08      0.00      5.43199
 C   333 -- C   365       -0.08      0.00      5.43293
 C   481 -- C   489       -0.08     -0.00      5.43331
 C   285 -- C   287       -0.08      0.00      5.43333
 C   385 -- C   395       -0.08      0.00      5.43347
 C   364 -- C   390       -0.08     -0.00      5.43361
 C   233 -- C   239       -0.08     -0.00      5.43371
 C    83 -- C   467       -0.09      0.00      5.43379
 C   202 -- C   216       -0.08      0.00      5.43453
 C   330 -- C   394       -0.08      0.00      5.43681
 C    68 -- C   556       -0.08     -0.00      5.43701
 C   190 -- C   284       -0.08      0.00      5.43725
 C    70 -- Li  618       -0.06     -0.00      5.43747
 C   253 -- C   413       -0.08     -0.00      5.43967
 H   590 -- Li  599       -0.02     -0.00      5.43978
 C   227 -- C   309       -0.08     -0.00      5.43981
 C    34 -- C   100       -0.08      0.00      5.44100
 C   319 -- C   361       -0.08      0.00      5.44181
 C   201 -- C   239       -0.08     -0.00      5.44194
 C   343 -- C   506       -0.08     -0.00      5.44338
 C   198 -- C   204       -0.08      0.00      5.44357
 C   254 -- C   284       -0.08     -0.00      5.44385
 C   316 -- C   390       -0.08      0.00      5.44418
 C   368 -- C   394       -0.08     -0.00      5.44550
 C    76 -- C   564       -0.07     -0.00      5.44608
 C    99 -- C   521       -0.08      0.00      5.44656
 C   470 -- C   547       -0.08     -0.00      5.44811
 C   261 -- C   427       -0.08     -0.00      5.45215
 C   466 -- C   538       -0.08     -0.00      5.46004
 H   581 -- Li  601       -0.03      0.00      5.46180
 C    33 -- Li  616       -0.07      0.00      5.46277
 H   591 -- Li  612       -0.02     -0.00      5.48205
 H   519 -- Li  601       -0.02      0.00      5.51471
 H   583 -- Li  610       -0.02     -0.00      5.51839
 H   426 -- Li  613       -0.02     -0.00      5.53142
 H   412 -- Li  598       -0.02     -0.00      5.53558
 H   474 -- Li  610       -0.02     -0.00      5.53921
 H   165 -- Li  594       -0.02      0.00      5.54869
 H   561 -- Li  618       -0.02      0.00      5.55495
 H   509 -- Li  597       -0.02     -0.00      5.56582
 H   535 -- Li  617       -0.02     -0.00      5.57749
 H   401 -- Li  598       -0.02      0.00      5.57766
 H   548 -- Li  596       -0.02      0.00      5.58731
 C    91 -- Li  599       -0.06     -0.00      5.59201
 H   582 -- Li  607       -0.02      0.00      5.59272
 H   151 -- Li  595       -0.02      0.00      5.59596
 H   539 -- Li  617       -0.02      0.00      5.61404
 H   544 -- Li  596       -0.02      0.00      5.62228
 H   591 -- Li  611       -0.01      0.00      5.63305
 H   582 -- Li  603       -0.02      0.00      5.64999
 H   471 -- Li  600       -0.02     -0.00      5.65691
 C    68 -- Li  614       -0.04     -0.00      5.66483
=============================================================


============== Orbital energy and occupancy information for spin 1 =============

      Total number of orbitals:    2174
        Occupancy sum (kernel):    1061.000000031
   Occupancy sum (eigenvalues):    1061.000000031
                 HOMO-LUMO gap:       0.005324342 Eh
                 Mid-gap level:      -0.087244736 Eh

                        Orbital | Energy (Eh) | Occupancy
                            1    -1.846361963   1.0000000
                        .......   ...........   .........
                         1053    -0.103681239   0.9844071
                         1054    -0.102427753   0.9770625
                         1055    -0.101487810   0.9694138
                         1056    -0.100441768   0.9578359
                         1057    -0.100037546   0.9523903
                         1058    -0.099014733   0.9351508
                         1059    -0.096128589   0.8533343
                         1060    -0.095267222   0.8157134
                         1061    -0.093327769   0.7056440
                         1062    -0.089906907   0.4496384
                        ....... -- gap at 0K -- .........
                         1063    -0.084582565   0.1319147
                         1064    -0.084286047   0.1216142
                         1065    -0.081338756   0.0518528
                         1066    -0.079362914   0.0283540
                         1067    -0.078676132   0.0229974
                         1068    -0.077534196   0.0161365
                         1069    -0.076756497   0.0126823
                         1070    -0.075636936   0.0089205
                         1071    -0.074786211   0.0068331
                         1072    -0.071796875   0.0026761
                        .......   ...........   .........
                         2174     0.770433864   0.0000000

================================================================================

============== Orbital energy and occupancy information for spin 2 =============

      Total number of orbitals:    2174
        Occupancy sum (kernel):    1060.999999970
   Occupancy sum (eigenvalues):    1060.999999970
                 HOMO-LUMO gap:       0.003420863 Eh
                 Mid-gap level:      -0.091617338 Eh

                        Orbital | Energy (Eh) | Occupancy
                            1    -1.846361963   1.0000000
                        .......   ...........   .........
                         1052    -0.107083288   0.9946246
                         1053    -0.103681240   0.9844071
                         1054    -0.102427753   0.9770625
                         1055    -0.101487810   0.9694138
                         1056    -0.100441767   0.9578359
                         1057    -0.100037546   0.9523903
                         1058    -0.099014734   0.9351508
                         1059    -0.096128588   0.8533342
                         1060    -0.095267222   0.8157134
                         1061    -0.093327769   0.7056440
                        ....... -- gap at 0K -- .........
                         1062    -0.089906907   0.4496384
                         1063    -0.084582564   0.1319148
                         1064    -0.084286048   0.1216142
                         1065    -0.081338755   0.0518528
                         1066    -0.079362914   0.0283540
                         1067    -0.078676132   0.0229974
                         1068    -0.077534196   0.0161365
                         1069    -0.076756497   0.0126823
                         1070    -0.075636936   0.0089205
                         1071    -0.074786212   0.0068331
                        .......   ...........   .........
                         2174     0.770433865   0.0000000

================================================================================

===================== Writing canonical molecular orbitals =====================
    Spin 1
| Orbital  Energy (eV)  Norm     |
| HOMO     -2.44649143  1.000000 | Writing "26/592nano_HOMO_UP.cube" ... done
Writing "26/592nano_HOMO_UP.dx" ... done
| LUMO     -2.30160870  1.000000 | Writing "26/592nano_LUMO_UP.cube" ... done
Writing "26/592nano_LUMO_UP.dx" ... done
================================================================================

===================== Writing canonical molecular orbitals =====================
    Spin 2
| Orbital  Energy (eV)  Norm     |
| HOMO     -2.53957782  1.000000 | Writing "26/592nano_HOMO_DN.cube" ... done
Writing "26/592nano_HOMO_DN.dx" ... done
| LUMO     -2.44649141  1.000000 | Writing "26/592nano_LUMO_DN.cube" ... done
Writing "26/592nano_LUMO_DN.dx" ... done
================================================================================

================== Local Density of States (LDOS) calculation ==================
Writing "26/592nano_UP_LDOS.txt" ...  done
================================================================================

================== Local Density of States (LDOS) calculation ==================
Writing "26/592nano_DN_LDOS.txt" ...  done
================================================================================
 
=============== Density of States (DOS) calculation for UP spin ================
Writing "26/592nano_UP_DOS.txt" ...  done
================================================================================
 
============== Density of States (DOS) calculation for DOWN spin ===============
Writing "26/592nano_DN_DOS.txt" ...  done
================================================================================
 
Writing bands to file "26/592nano.val_bands" ... done
 
================ Projected Density of States (pDOS) calculation ================
 
Constructing AM resolved functions  ...... done
Writing NGWF plot files in formats: CUBE DX ...  done
 
Performing overlap integrals ...  done
 
Computing pDOS weights ...  done
 
All bands spilling parameter =   3.05 %
Occupancy-weighted spilling parameter =   0.90 %
 
 => Outputting data for OptaDOS <=
 
Writing pDOS weights to file "26/592nano.val_pdos_bin" ... done
 
Writing band gradients to file "26/592nano.val_dome_bin" ... done
 
Writing Castep output cell file to "26/592nano-out.cell" ... done
 
 => Computing Gaussian smeared pDOS for UP spin<= 
Writing "26/592nano_UP_PDOS.txt" ...  done
 
 => Computing Gaussian smeared pDOS for DOWN spin<= 
Writing "26/592nano_DN_PDOS.txt" ...  done
 
 => Computing Occupancy-weighted Gaussian smeared pDOS for UP spin<= 
Writing "26/592nano_occ_UP_PDOS.txt" ...  done
  => Band centres for UP spin channel: 
 S band centre of group 1:  -17.029919 eV
 P band centre of group 1:   -8.016166 eV
  Band centres for UP spin channel done. <= 
  => Integrated number of electrons in each AM band for UP spin channel: 
 S num electrons of group 1:  291.009848
 P num electrons of group 1:  760.440353
  Integrated number of electrons for UP spin channel done. <= 
 
 => Computing Occupancy-weighted Gaussian smeared pDOS for DOWN spin<= 
Writing "26/592nano_occ_DN_PDOS.txt" ...  done
  => Band centres for DOWN spin channel: 
 S band centre of group 1:  -17.029919 eV
 P band centre of group 1:   -8.016166 eV
  Band centres for DOWN spin channel done. <=
  => Integrated number of electrons in each AM band for DOWN spin channel: 
 S num electrons of group 1:  291.009848
 P num electrons of group 1:  760.440353
  Integrated number of electrons for DOWN spin channel done. <=
================================================================================

------------------------------ TIMING INFORMATION ------------------------------
AVERAGE TIME:   14174.132s on    160 node(s)                                    
TOTAL TIME:     14174.133s on    160 node(s)                                    
================= AVERAGE TIMINGS FROM ALL NODES (CUMULATIVE) ==================
|| TAG                                    #calls    cpu time   %total  Gflops ||
|| work_imbalance                       :     1        0.00s   0.000%  ------ ||
|| paw_tcore_density                    :     1        0.01s   0.000%  ------ ||
|| sparse_set_to_garbage                :   237        0.01s   0.000%  ------ ||
|| paw_sphere_density_on_grid           :     1        0.01s   0.000%  ------ ||
|| basis_extract_function_from_box      :   380        0.02s   0.000%  ------ ||
|| paw_dij_hartree                      :   874        0.03s   0.000%  ------ ||
|| ngwfs_initialise_from_radial         :     2        0.04s   0.000%  ------ ||
|| ewald_calculate_energy               :     1        0.11s   0.001%  ------ ||
|| density_init_guess_real              :     1        0.25s   0.002%  ------ ||
|| paw_dataset_init                     :     3        0.33s   0.002%  ------ ||
|| paw_tcore_hartree_on_grid            :     1        0.35s   0.002%  ------ ||
|| pseudo_make_structure_factor         :     1        0.49s   0.003%  ------ ||
|| sparse_init                          :     1        0.93s   0.007%  ------ ||
|| dense_normal_eigensolve              :     1        1.03s   0.007%  ------ ||
|| restart_kernel_write                 :    15        1.32s   0.009%  ------ ||
|| paw_species_calc_proj_prec_mat       :     1        2.16s   0.015%  ------ ||
|| sparse_embed_hotelling_invert_embed  :    27        4.90s   0.035%  ------ ||
|| sw_init                              :     1        7.53s   0.053%  ------ ||
|| fourier_apply_box_pair               :   952       10.76s   0.076%  2.338k ||
|| ngwf_gradient_coeffs                 :    14       12.27s   0.087%  ------ ||
|| augmentation_screen_dij              :   656       12.39s   0.087%  ------ ||
|| projectors_init_fftbox_recip         :    57       21.29s   0.150%  ------ ||
|| basis_copy_function_to_box           : 24172       30.72s   0.217%  ------ ||
|| hartree_on_grid                      :   651       32.51s   0.229%  ------ ||
|| integrals_kinetic                    :    27       33.06s   0.233%  ------ ||
|| paw_dij_xc                           :   874       38.12s   0.269%  ------ ||
|| function_ops_brappd_ketppd           :    56       39.44s   0.278%  ------ ||
|| projectors_func_ovlp_box             :    28       39.63s   0.280%  ------ ||
|| hamiltonian_energy_components        :     3       68.15s   0.481%  ------ ||
|| eigenstates_pdos                     :     1       78.23s   0.552%  ------ ||
|| sparse_trace                         : 16296       85.17s   0.601%  ------ ||
|| aug_nonlocal_mat                     :   860       94.17s   0.664%  ------ ||
|| augmentation_density_on_grid         :   651      106.38s   0.751%  ------ ||
|| fourier_apply_cell_forward           :  5851      110.96s   0.783% 183.542 ||
|| fourier_apply_cell_backward          :  5852      117.72s   0.830% 173.031 ||
|| restart_ngwfs_tightbox_output        :    13      123.80s   0.873%  ------ ||
|| basis_dot_function_with_box          : 5.171M     143.00s   1.009%  ------ ||
|| eigenstates_calculate                :     1      163.73s   1.155%  ------ ||
|| xc_energy_potential                  :   650      232.96s   1.644%  ------ ||
|| sparse_product                       : 14129      349.62s   2.467%  ------ ||
|| dense_eigensolve                     :  1240      391.04s   2.759%  ------ ||
|| integrals_locpot_mat_els_batch       :   433      489.94s   3.457%  ------ ||
|| basis_add_function_to_box            : 15.82M     515.78s   3.639%  ------ ||
|| cell_grid_extract_box_real           : 13956      528.54s   3.729%  ------ ||
|| projectors_gradient_batch            :    14      606.72s   4.280%  ------ ||
|| cell_grid_deposit_box_real           : 46961      665.09s   4.692%  ------ ||
|| projectors_grad_precond_batch        :    14      855.77s   6.038%  ------ ||
|| properties_calculate                 :     1     1182.24s   8.341%  ------ ||
|| density_batch_row_sums               :   651     1202.39s   8.483%  ------ ||
|| density_fftbox_deposit_to_cell       : 20832     1263.82s   8.916%  ------ ||
|| edft_diag_ngwf_ham                   :  1238     1439.57s  10.156%  ------ ||
|| potential_apply_to_ngwf_batch        :   433     1487.76s  10.496%  ------ ||
|| ngwf_gradient_build_batch            :    14     1623.60s  11.455%  ------ ||
|| fourier_apply_box                    : 77266     1643.61s  11.596%  4.065k ||
|| ngwf_gradient_batch                  :    14     1755.94s  12.388%  ------ ||
|| ngwf_gradient_lnv                    :    14     1777.61s  12.541%  ------ ||
|| density_fftbox_interpolate_multiply  : 20832     1865.19s  13.159%  ------ ||
|| integrals_locpot_dbl_grid            :   433     1992.42s  14.057%  ------ ||
|| edft_apply_smearing_operator         :   619     2397.20s  16.913%  ------ ||
|| density_batch_interp_deposit         :   651     3722.34s  26.262%  ------ ||
|| density_on_dbl_grid                  :   651     5030.47s  35.491%  ------ ||
|| hamiltonian_lhxc_calculate           :   646     5505.76s  38.844%  ------ ||
|| edft_calculate                       :    14    10091.48s  71.196%  ------ ||
|| ngwf_cg_optimise                     :     1    12972.79s  91.524%  ------ ||
|| total_time                           :     1    14174.13s 100.000%  ------ ||
================================================================================
Overhead of generating timer report: 
- 0 ms averaging over threads,
- 27 ms ensuring consistency across MPI ranks,
- 0 ms printing in order.

Job completed: 16-09-2020 07:35 (+0100)

