 +---------------------------------------------------------------+
 |                                                               |
 |        ####### #     # ####### ####### ####### ######         |
 |        #     # ##    # #          #    #       #     #        |
 |        #     # # #   # #          #    #       #     #        |
 |        #     # #  #  # #####      #    #####   ######         |
 |        #     # #   # # #          #    #       #              |
 |        #     # #    ## #          #    #       #              |
 |        ####### #     # #######    #    ####### #              |
 |                                                               |
 |        Linear-Scaling Ab Initio Total Energy Program          |
 |                                                               |
 |          Release for academic collaborators of ODG            |
 |                                             Version 5.3.2.12  |
 |                                                               |
 +---------------------------------------------------------------+
 |                                                               |
 |  Authors:                                                     |
 |  Jacek Dziedzic, Peter D. Haynes, Nicholas D. M. Hine,        |
 |  Arash. A. Mostofi, Mike C. Payne and Chris-Kriton Skylaris   |
 |                                                               |
 |  Contributors:                                                |
 |  J. Aarons, L. Andrinopoulos, P. W. Avraam, R. A. Bell,       |
 |  A. Bhandari, G. A. Bramley, R. J. Charlton, S. J. Clark,     |
 |  R. J. Clements, G. C. Constantinescu, F. Corsetti,           |
 |  N. Corsini, O. Dieguez, S. M. M. Dubois, K. K. B. Duff,      |
 |  J. M. Escartin, A. Greco, H. Helal, Q. O. Hill, L. P. Lee,   |
 |  J.-H. Li, E. B. Linscott, G. Moynihan, D. D. O`Regan,        |
 |  O. K. Okan, M. J. S. Phipps, C. J. Pickard,                  |
 |  J. C. A. Prentice, M. I. J. Probert, L. E. Ratcliff,         |
 |  M. Robinson, A. Ruiz Serrano, J. S. Spencer, E. W. Tait,     |
 |  G. Teobaldi, D. Turban, V. Vitale, K. A. Wilkinson,          |
 |  C. Weber, J. C. Womack, N. Yeung and T. J. Zuehlsdorff       |
 |                                                               |
 |                                   Copyright (c) 2004-2020     |
 |                                                               |
 |  Please cite:                                                 |
 |  "Introducing ONETEP: Linear-scaling density functional       |
 |   simulations on parallel computers".                         |
 |   C.-K. Skylaris, P. D. Haynes, A. A. Mostofi, M. C. Payne.   |
 |   J. Chem. Phys. 122 084119 (2005).                           |
 |                                                               |
 |          in all publications arising from your use of ONETEP. |
 |                                                               |
 +---------------------------------------------------------------+
 |                                                               |
 |   ONETEP is based on developments described in the following  |
 |   publications:                                               |
 |                                                               |
 |  "Nonorthogonal generalized Wannier function pseudopotential  |
 |   plane-wave method".                                         |
 |   C.-K. Skylaris, A. A. Mostofi, P. D. Haynes, O. Dieguez,    |
 |   M. C. Payne.                                                |
 |   Phys. Rev. B 66 035119 (2002).                              |
 |                                                               |
 |  "Preconditioned iterative minimization for linear-scaling    |
 |   electronic structure calculations".                         |
 |   A. A. Mostofi, P. D. Haynes, C.-K. Skylaris, M. C. Payne.   |
 |   J. Chem. Phys. 119(17), pp.8842-8848 (2003).                |
 |                                                               |
 |  "Total-energy calculations on a real space grid with         |
 |   localized functions and a plane-wave basis".                |
 |   A. A. Mostofi, C.-K. Skylaris, P. D. Haynes, M. C. Payne.   |
 |   Comput. Phys. Commun. 147, pp.788-802 (2002).               |
 |                                                               |
 |  "Accurate kinetic energy evaluation in electronic structure  |
 |   calculations with localized functions on real space grids"  |
 |   C.-K. Skylaris, A. A. Mostofi, P. D. Haynes, C. J. Pickard, |
 |   M. C. Payne.                                                |
 |   Comput. Phys. Commun. 140, pp.315-322 (2001).               |
 |                                                               |
 |  "Accurate ionic forces and geometry optimization in linear-  |
 |   scaling density-functional theory with local orbitals"      |
 |   N. D. M. Hine, M. Robinson, P. D. Haynes, C.-K. Skylaris,   |
 |   M. C. Payne, and A. A. Mostofi.                             |
 |   Phys. Rev. B 83 195102 (2011).                              |
 |                                                               |
 +---------------------------------------------------------------+

Job started: 25-09-2020 15:06 (+0100)
 
Reading parameters from file "28/592nano.dat" ...... done

If your calculation crashes here, before "Checking processes and threads..."
is displayed, then your stack size is insufficient.
If so, use "ulimit -s unlimited" at runtime.
You can disable this check with "check_stack_size F".

Checking processes and threads...
   Determining the default number of threads...
      No default threads set at compilation time: defaulting to 1.
      OpenMP library call suggests 4 threads.
      Hybrid MPI-OpenMP compilation detected.
      Number of MPI processes > 1.
      OMP_NUM_THREADS environment variable present and
      its value matches the one obtained from the OpenMP library call.
      Using this value as default.
      Default threads: 4
      Default applies to threads_max and threads_num_fftboxes.
      Settings in the input file override this default.
   ... done

   Running with 160 MPI processes.
   There are 10 MPI processes running on the same node as the root process.
   Each MPI process is using: 
               1 threads for simulation cell FFTs.
               1 threads for parallel FFT box operations.
               4 threads for loops over batched FFT box operations.
               4 threads in other parallel regions.
... done

Basic input checks...
Resetting ngwf_cg_rotate to TRUE for EDFT calculations
... done

Reading geometry and species blocks from file "28/592nano.dat" ...    
  Number of PPD points along a3 set to 1.  This is 
  the default value, it may have been provided also in the input file.
... done
 Writing xyz coordinates to file "28/592nano.xyz" ... done


--------------------------------------------------------------------------------
---------------------------------- INPUT FILE ----------------------------------
--------------------------------------------------------------------------------

task : singlepoint                                                              
do_properties : true                                                            
ddec_classical_hirshfeld T                                                      
dx_format T                                                                     
edft T                                                                          
edft_spin_fix 3                                                                 
output_detail VERBOSE                                                           
write_xyz T                                                                     
dispersion 4                                                                    
xc_functional PBE                                                               
cutoff_energy 830 eV                                                            
paw T                                                                           
geom_disp_tol 0.015 bohr                                                        
geom_energy_tol 1.5E-6 hartree                                                  
geom_force_tol 0.003 "ha/bohr"                                                  
EDFT_MAXIT 30                                                                   
pdos_max_l = 2                                                                  
dos_smear  0.1 eV                                                               
popn_calculate T                                                                
PDOS_PSEUDOATOMIC T                                                             
PDOS_REDUCE_SWS F                                                               
PDOS_CONSTRUCT_BASIS F                                                          
PDOS_LOWDIN T                                                                   
PDOS_ORTH_ATOM_BLOCKS F                                                         
PDOS_LCAO_OPTIMIZE F                                                            
pdos_optados_output T                                                           
homo_plot 0                                                                     
lumo_plot 0                                                                     
homo_dens_plot -1                                                               
lumo_dens_plot -1                                                               
%BLOCK SPECIES                                                                  
C C 6 4 9.0                                                                     
H H 1 1 9.0                                                                     
Li Li 3 5 9.0                                                                   
%ENDBLOCK SPECIES                                                               
%BLOCK SPECIES_POT                                                              
C "~/pp/paw/c_pbe_abinit.paw"                                                   
H "~/pp/paw/h_pbe_abinit.paw"                                                   
Li "~/pp/paw/li_pbe_abinit.paw"                                                 
%ENDBLOCK SPECIES_POT                                                           
%BLOCK SPECIES_ATOMIC_SET                                                       
C "SOLVE conf=2s2 2p2"                                                          
H "SOLVE conf=1s1"                                                              
Li "SOLVE conf=1s2 2s1 2p0"                                                     
%ENDBLOCK SPECIES_ATOMIC_SET                                                    
%BLOCK SPECIES_LDOS_GROUPS                                                      
C                                                                               
H                                                                               
Li                                                                              
%ENDBLOCK SPECIES_LDOS_GROUPS                                                   
%BLOCK LATTICE_CART                                                             
94.486315650000      0.000000000000       0.000000000000                        
0.000000000000       94.486315650000      0.000000000000                        
0.000000000000       0.000000000000       94.486315650000                       
%ENDBLOCK LATTICE_CART                                                          
%BLOCK POSITIONS_ABS                                                            
C 45.488129 50.679625 30.709631                                                 
C 45.441219 50.587451 36.790775                                                 
C 46.829591 53.023610 30.688230                                                 
C 48.134938 50.580360 36.800925                                                 
C 49.549255 48.370132 30.632216                                                 
C 49.474213 48.243432 36.786996                                                 
C 50.890709 50.712125 30.621996                                                 
C 52.170464 48.234037 36.793977                                                 
C 45.466695 55.351858 30.604774                                                 
C 45.455423 55.255236 36.790681                                                 
C 46.806417 57.695503 30.457214                                                 
C 48.148508 55.248681 36.801502                                                 
C 49.529622 53.037227 30.644424                                                 
C 49.487417 52.913361 36.810766                                                 
C 50.871559 55.380266 30.503184                                                 
C 52.181970 52.908329 36.822030                                                 
C 45.395418 50.480880 43.007878                                                 
C 45.382751 50.424083 49.093475                                                 
C 46.744560 52.814371 43.025815                                                 
C 48.084071 50.435278 49.119977                                                 
C 49.435936 48.153174 42.983413                                                 
C 49.437616 48.103774 49.170130                                                 
C 50.784574 50.484057 43.007358                                                 
C 52.136768 48.113501 49.306465                                                 
C 45.397389 55.145477 43.041736                                                 
C 45.367871 55.095265 49.213959                                                 
C 46.745309 57.481404 43.056416                                                 
C 48.065252 55.106532 49.250430                                                 
C 49.439935 52.814387 43.030746                                                 
C 49.423361 52.779262 49.197581                                                 
C 50.791781 55.148583 43.044632                                                 
C 52.122287 52.792430 49.338554                                                 
C 57.652736 48.409603 30.155226                                                 
C 57.542470 48.213554 36.892095                                                 
C 58.988248 50.743316 29.976866                                                 
C 60.263872 48.201845 37.020067                                                 
C 57.525978 48.159178 42.870980                                                 
C 57.507288 48.130642 49.770832                                                 
C 58.885926 50.473822 42.839656                                                 
C 60.234149 48.145281 49.982662                                                 
C 53.594824 50.726758 30.482190                                                 
C 53.522147 50.568329 36.820501                                                 
C 54.926557 53.064711 30.336617                                                 
C 56.215219 50.562531 36.867596                                                 
C 53.484788 50.485152 42.992412                                                 
C 53.474475 50.458472 49.396310                                                 
C 54.835019 52.812808 42.991489                                                 
C 56.162250 50.467216 49.651040                                                 
C 57.675229 43.752375 30.081716                                                 
C 57.555338 43.554752 36.840220                                                 
C 59.015456 46.070683 30.016714                                                 
C 60.249939 43.551668 36.821703                                                 
C 57.530880 43.499595 42.827666                                                 
C 57.526271 43.468629 49.993966                                                 
C 58.877505 45.824835 42.791569                                                 
C 60.230732 43.500780 50.273857                                                 
C 53.608437 46.064844 30.381140                                                 
C 53.508153 45.900515 36.786456                                                 
C 54.956376 48.401392 30.381926                                                 
C 56.205919 45.895622 36.827361                                                 
C 53.475849 45.824882 42.925762                                                 
C 53.484046 45.787937 49.475424                                                 
C 54.830372 48.156507 42.940545                                                 
C 56.177509 45.807540 49.716956                                                 
C 57.591165 57.738607 29.823140                                                 
C 57.586252 57.576606 36.958641                                                 
C 58.914294 60.099299 29.544158                                                 
C 60.304712 57.554297 36.986588                                                 
C 57.547887 57.474196 42.869341                                                 
C 57.504278 57.484889 49.942361                                                 
C 58.889852 59.827014 42.766538                                                 
C 60.223879 57.462490 50.184268                                                 
C 45.412336 64.678405 29.743486                                                 
C 45.484179 64.604597 36.857142                                                 
C 46.767752 67.017112 29.468261                                                 
C 48.174920 64.607807 36.844425                                                 
C 49.469151 62.354709 29.910775                                                 
C 49.532358 62.250402 36.844646                                                 
C 50.834133 64.719905 29.579293                                                 
C 52.229802 62.248169 36.955683                                                 
C 45.390439 64.486496 42.932997                                                 
C 45.338062 64.408498 50.068657                                                 
C 46.762471 66.825961 42.811087                                                 
C 48.023428 64.419407 50.129639                                                 
C 49.430572 62.149087 43.015010                                                 
C 49.386582 62.094249 49.916042                                                 
C 50.796693 64.510517 42.987916                                                 
C 52.068072 62.117915 50.065249                                                 
C 53.541045 60.045476 30.009800                                                 
C 53.551470 59.912011 36.920817                                                 
C 54.888320 62.415807 29.771651                                                 
C 56.253586 59.908866 36.988802                                                 
C 53.486144 59.805607 42.942796                                                 
C 53.432481 59.797082 49.861630                                                 
C 54.844229 62.184527 42.831755                                                 
C 56.157320 59.807189 49.994744                                                 
C 57.621561 53.072851 30.066676                                                 
C 57.562389 52.902542 36.940781                                                 
C 58.955968 55.428225 29.820344                                                 
C 60.296179 52.896822 37.087154                                                 
C 57.536550 52.807816 42.904863                                                 
C 57.489515 52.811732 49.853823                                                 
C 58.894793 55.157163 42.865564                                                 
C 60.222204 52.806491 50.172491                                                 
C 45.446798 60.016269 30.267468                                                 
C 45.470592 59.924702 36.774476                                                 
C 46.786503 62.348762 29.997632                                                 
C 48.168253 59.920668 36.787884                                                 
C 49.506791 57.706991 30.398987                                                 
C 49.505115 57.583120 36.808269                                                 
C 50.842244 60.039116 30.132692                                                 
C 52.197497 57.578943 36.848018                                                 
C 45.397860 59.809916 43.042071                                                 
C 45.349662 59.753076 49.566404                                                 
C 46.751058 62.146478 43.011365                                                 
C 48.048872 59.767336 49.612376                                                 
C 49.442260 57.480658 43.052417                                                 
C 49.405922 57.446789 49.449164                                                 
C 50.788798 59.816851 43.021298                                                 
C 52.100499 57.458789 49.579594                                                 
C 53.561139 55.391417 30.342449                                                 
C 53.533829 55.237851 36.848188                                                 
C 54.889810 57.734585 30.084703                                                 
C 56.229949 55.227954 36.901629                                                 
C 53.486643 55.145885 43.013208                                                 
C 53.459596 55.130154 49.517297                                                 
C 54.834524 57.484075 42.955927                                                 
C 56.154552 55.134239 49.742770                                                 
H 27.336742 41.246433 29.143779                                                 
H 28.202524 39.555443 36.979411                                                 
H 27.192254 41.143606 42.553141                                                 
H 28.218278 39.290097 50.145900                                                 
H 41.916566 30.251695 29.210104                                                 
C 42.941427 32.041820 29.327391                                                 
H 44.386630 30.158822 37.007481                                                 
H 41.729293 30.022503 42.870347                                                 
C 42.763432 31.813290 42.864084                                                 
H 44.422748 29.998923 50.104186                                                 
H 29.670128 37.193413 29.146028                                                 
C 30.703109 38.973692 29.324764                                                 
H 32.254968 37.182599 36.863070                                                 
H 33.777475 34.819183 29.223492                                                 
C 34.788132 36.614557 29.387678                                                 
H 29.511049 37.077384 42.564864                                                 
C 30.547818 38.864172 42.650639                                                 
H 32.278708 36.954617 50.221509                                                 
H 33.555581 34.694599 42.650860                                                 
C 34.598041 36.477186 42.722389                                                 
H 37.859200 32.540220 29.080610                                                 
C 38.863600 34.338311 29.265838                                                 
H 40.341728 32.501030 36.921363                                                 
H 37.652768 32.333512 42.734633                                                 
C 38.674213 34.129339 42.771973                                                 
H 40.385653 32.321377 50.238963                                                 
H 46.610127 30.281914 29.402274                                                 
H 46.412687 30.059916 42.978456                                                 
H 25.843917 48.305354 37.054711                                                 
C 27.908187 48.301040 36.979185                                                 
H 25.825711 48.018869 50.482015                                                 
C 27.887795 48.032351 50.335177                                                 
H 25.865869 43.612269 36.834873                                                 
H 27.296929 45.958994 29.399050                                                 
C 27.931533 43.605562 36.912691                                                 
H 25.851408 43.343597 50.308196                                                 
H 27.182285 45.822708 42.720372                                                 
C 27.916604 43.348368 50.243810                                                 
H 25.915750 57.698072 37.031924                                                 
H 27.259593 59.931799 29.534846                                                 
C 27.983340 57.693920 37.019201                                                 
H 25.810205 57.387996 50.352109                                                 
H 27.208870 59.842257 42.956573                                                 
C 27.877696 57.398623 50.310961                                                 
H 25.866584 53.024066 37.063680                                                 
H 27.277918 55.254649 29.480146                                                 
C 27.930652 52.999446 36.993824                                                 
H 25.805217 52.703676 50.431606                                                 
H 27.192654 55.166518 42.844665                                                 
C 27.868418 52.702898 50.309177                                                 
C 29.394190 41.251417 29.328297                                                 
C 29.238555 41.345386 36.924869                                                 
C 30.661911 43.612806 29.556574                                                 
C 31.928046 41.267616 36.972580                                                 
C 33.400306 38.893088 29.475058                                                 
C 33.297042 38.967406 36.759326                                                 
C 34.733189 41.275885 29.746739                                                 
C 35.971086 38.902909 36.926423                                                 
C 29.360019 45.949371 29.561779                                                 
C 29.209706 45.962297 37.000415                                                 
C 30.651490 48.267079 29.588323                                                 
C 31.936270 45.940712 36.942778                                                 
C 33.378934 43.600412 29.793369                                                 
C 33.278620 43.618126 36.912454                                                 
C 34.721448 45.951851 30.015185                                                 
C 35.992502 43.604016 36.826562                                                 
C 29.257616 41.125187 42.655633                                                 
C 29.236756 41.088543 50.152745                                                 
C 30.545175 43.498017 42.689569                                                 
C 31.930072 41.031397 50.075873                                                 
C 33.237359 38.778553 42.681837                                                 
C 33.308195 38.745331 50.104373                                                 
C 34.586661 41.142599 42.801772                                                 
C 35.967530 38.710781 50.144763                                                 
C 29.246539 45.822880 42.848283                                                 
C 29.192122 45.732036 50.237551                                                 
C 30.534422 48.150012 42.920172                                                 
C 31.919063 45.721255 50.024524                                                 
C 33.257323 43.475073 42.837306                                                 
C 33.266419 43.398469 49.961209                                                 
C 34.606895 45.820966 42.951066                                                 
C 35.977218 43.399350 49.771361                                                 
C 41.502762 39.002567 29.856636                                                 
C 41.390310 38.928074 36.771484                                                 
C 42.833664 41.332636 30.173495                                                 
C 44.073064 38.924979 36.796717                                                 
C 41.348052 38.803089 42.893496                                                 
C 41.396119 38.753963 49.887331                                                 
C 42.693518 41.145112 42.965531                                                 
C 44.072734 38.754637 49.770387                                                 
C 37.452579 41.289810 29.910368                                                 
C 37.336613 41.279103 36.835915                                                 
C 38.774199 43.629715 30.216851                                                 
C 40.034898 41.261977 36.763170                                                 
C 37.301485 41.138264 42.898747                                                 
C 37.325680 41.085335 49.876897                                                 
C 38.651894 43.476222 42.981896                                                 
C 40.021991 41.078232 49.710467                                                 
C 41.512607 34.329421 29.377579                                                 
C 41.377229 34.288638 36.827023                                                 
C 42.871125 36.681627 29.646110                                                 
C 44.038894 34.242305 36.985162                                                 
C 41.348295 34.101650 42.769001                                                 
C 41.412571 34.115116 50.136482                                                 
C 42.710605 36.456282 42.833385                                                 
C 44.074636 34.080851 50.062878                                                 
C 37.473122 36.588196 29.383735                                                 
C 37.346860 36.625675 36.812876                                                 
C 38.822697 38.973403 29.695439                                                 
C 40.017042 36.568433 36.783682                                                 
C 37.276164 36.409833 42.754997                                                 
C 37.357451 36.427690 50.000343                                                 
C 38.648245 38.795010 42.863947                                                 
C 40.038422 36.388624 50.165026                                                 
C 41.446452 48.317985 30.583616                                                 
C 41.392356 48.264839 36.747651                                                 
C 42.785820 50.661943 30.658154                                                 
C 44.087628 48.256905 36.764645                                                 
C 41.353118 48.145532 43.017177                                                 
C 41.342157 48.075902 49.204702                                                 
C 42.700617 50.478855 43.016175                                                 
C 44.041073 48.082500 49.127575                                                 
C 29.341791 55.264286 29.613535                                                 
C 29.251050 55.321425 37.032052                                                 
C 30.628350 57.603197 29.648902                                                 
C 31.971684 55.320793 36.944740                                                 
C 33.371138 52.962291 29.895613                                                 
C 33.314828 52.961762 36.847797                                                 
C 34.700504 55.288004 29.996529                                                 
C 36.015454 52.949344 36.775810                                                 
C 29.260234 55.155475 42.917152                                                 
C 29.166747 55.029311 50.257760                                                 
C 30.558491 57.478945 42.918570                                                 
C 31.883629 55.051291 50.044943                                                 
C 33.280954 52.822949 42.913739                                                 
C 33.243264 52.709005 49.854187                                                 
C 34.624300 55.143145 42.954069                                                 
C 35.936291 52.723261 49.563611                                                 
C 37.393543 50.632528 30.353315                                                 
C 37.351772 50.609418 36.747737                                                 
C 38.733770 52.976705 30.424677                                                 
C 40.051915 50.601191 36.750111                                                 
C 37.311275 50.479565 43.014488                                                 
C 37.286762 50.397855 49.424333                                                 
C 38.660773 52.813230 43.019987                                                 
C 39.986243 50.404774 49.238734                                                 
C 41.471053 43.649210 30.344678                                                 
C 41.383668 43.596846 36.733979                                                 
C 42.808909 45.991584 30.540973                                                 
C 44.079861 43.588964 36.731087                                                 
C 41.346012 43.475840 42.996400                                                 
C 41.357965 43.406886 49.437048                                                 
C 42.696835 45.813580 43.006682                                                 
C 44.059325 43.411714 49.348027                                                 
C 29.351897 50.607472 29.756097                                                 
C 29.197730 50.643593 36.987088                                                 
C 30.643950 52.953374 29.603812                                                 
C 31.950618 50.632297 36.875380                                                 
C 33.381413 48.270781 29.897766                                                 
C 33.297462 48.289059 36.851357                                                 
C 34.705304 50.619907 30.078919                                                 
C 35.997187 48.280407 36.767442                                                 
C 29.252816 50.484326 42.895780                                                 
C 29.164199 50.358172 50.259253                                                 
C 30.542383 52.819727 42.785794                                                 
C 31.904264 50.371895 49.992158                                                 
C 33.267576 48.141351 42.956531                                                 
C 33.262135 48.058811 49.841444                                                 
C 34.614811 50.479031 42.975331                                                 
C 35.948918 48.063969 49.571121                                                 
C 37.412744 45.956915 30.265072                                                 
C 37.341554 45.941231 36.767865                                                 
C 38.747746 48.298555 30.436815                                                 
C 40.037255 45.933446 36.738485                                                 
C 37.308647 45.813900 42.995875                                                 
C 37.309329 45.734133 49.537016                                                 
C 38.655641 48.142887 43.020938                                                 
C 40.000422 45.737375 49.359722                                                 
C 45.558863 32.060032 29.433891                                                 
C 45.440976 31.936464 36.962675                                                 
C 46.946145 34.364911 29.567693                                                 
C 48.042988 31.916781 36.958393                                                 
H 49.069030 30.122929 36.983514                                                 
H 50.657741 32.645530 29.391940                                                 
C 45.556436 36.697321 29.726835                                                 
C 45.417630 36.578329 36.877387                                                 
C 46.901769 39.042942 29.968704                                                 
C 48.100143 36.555787 36.894875                                                 
C 49.614874 34.424213 29.549790                                                 
C 49.465804 34.201117 36.986536                                                 
C 50.968569 36.713253 29.576404                                                 
C 52.137556 34.224753 36.987680                                                 
C 45.357680 31.836925 42.929018                                                 
C 45.470529 31.781985 50.112469                                                 
C 46.747438 34.136896 42.894518                                                 
C 48.064645 31.772524 50.184383                                                 
H 49.106749 29.986876 50.235091                                                 
H 50.442611 32.387885 42.789288                                                 
C 45.391259 36.469314 42.882223                                                 
C 45.425794 36.416830 49.935546                                                 
C 46.738642 38.813247 42.894601                                                 
C 48.103169 36.418351 49.993618                                                 
C 49.410496 34.180601 42.843519                                                 
C 49.470840 34.071577 50.199371                                                 
C 50.782390 36.455589 42.754749                                                 
C 52.144118 34.108685 50.245784                                                 
H 53.155191 32.428694 37.066046                                                 
H 53.171930 32.320671 50.373887                                                 
C 57.667845 39.133437 29.785885                                                 
C 57.574041 38.875581 37.037339                                                 
C 59.025646 41.416054 29.972858                                                 
C 60.261586 38.945428 36.894552                                                 
C 57.504283 38.852625 42.860069                                                 
C 57.555719 38.782664 50.300714                                                 
C 58.875612 41.142262 42.847216                                                 
C 60.244548 38.875980 50.412816                                                 
C 45.506863 46.009538 30.583800                                                 
C 45.430682 45.922274 36.750047                                                 
C 46.850109 48.351943 30.675017                                                 
C 48.123047 45.913994 36.758475                                                 
C 49.571036 43.705674 30.380354                                                 
C 49.469037 43.573857 36.745635                                                 
C 50.914362 46.045904 30.491767                                                 
C 52.160173 43.568282 36.769434                                                 
C 45.391106 45.816031 42.988276                                                 
C 45.399055 45.751988 49.187709                                                 
C 46.740470 48.148645 42.991873                                                 
C 48.096591 45.762753 49.204864                                                 
C 49.433661 43.485986 42.937373                                                 
C 49.452972 43.429559 49.373322                                                 
C 50.783011 45.820543 42.952594                                                 
C 52.146182 43.443869 49.509188                                                 
C 53.632924 41.425715 29.996828                                                 
C 53.508716 41.231081 36.849971                                                 
C 54.968874 43.742029 30.171250                                                 
C 56.221197 41.233121 36.924111                                                 
C 53.479177 41.169158 42.840553                                                 
C 53.495700 41.117491 49.795854                                                 
C 54.818942 43.490628 42.874226                                                 
C 56.202618 41.134343 50.037485                                                 
H 57.247014 34.798181 37.221917                                                 
H 58.713763 37.354353 29.637701                                                 
H 57.252762 34.699659 50.456673                                                 
H 58.544386 37.067067 42.777369                                                 
C 45.532899 41.354506 30.222375                                                 
C 45.424644 41.258186 36.749489                                                 
C 46.869197 43.686944 30.427321                                                 
C 48.118452 41.244829 36.749011                                                 
C 49.581552 39.063092 29.891446                                                 
C 49.461513 38.902798 36.815766                                                 
C 50.930857 41.392535 30.112480                                                 
C 52.163169 38.892126 36.871725                                                 
C 45.388231 41.151074 42.946536                                                 
C 45.414102 41.090579 49.518088                                                 
C 46.735768 43.480706 42.961801                                                 
C 48.109829 41.096168 49.525041                                                 
C 49.418076 38.820018 42.844129                                                 
C 49.458584 38.766801 49.799760                                                 
C 50.780962 41.154193 42.885788                                                 
C 52.154911 38.772638 49.921337                                                 
C 53.639608 36.774831 29.734865                                                 
C 53.535906 36.509942 37.014072                                                 
C 55.011932 39.082231 29.680378                                                 
C 56.207425 36.578048 37.084592                                                 
C 53.463156 36.512125 42.980376                                                 
C 53.531886 36.397565 50.199258                                                 
C 54.848663 38.801123 42.765791                                                 
C 56.207314 36.474058 50.298522                                                 
H 61.286679 37.150085 36.879929                                                 
H 62.729937 39.678127 30.141933                                                 
H 61.281669 37.092044 50.525763                                                 
H 62.583310 39.408871 42.839721                                                 
H 28.290913 61.741082 37.081793                                                 
H 28.155320 61.443030 50.404722                                                 
C 29.326071 59.957248 29.555508                                                 
C 29.301378 59.937326 37.036367                                                 
C 30.618778 62.234934 29.494094                                                 
C 32.001281 59.995934 37.061156                                                 
C 33.344995 57.631167 29.793092                                                 
C 33.333336 57.632495 36.928944                                                 
C 34.677359 59.963300 29.752123                                                 
C 36.037199 57.624820 36.829953                                                 
H 29.579782 64.019408 29.423362                                                 
H 32.346097 64.067899 37.024176                                                 
C 33.319747 62.327006 29.538811                                                 
C 33.371780 62.276340 36.912532                                                 
C 34.654694 64.610478 29.472767                                                 
C 36.028724 62.312270 36.858755                                                 
C 29.275081 59.851915 42.931875                                                 
C 29.178586 59.645977 50.338725                                                 
C 30.577824 62.119953 42.884478                                                 
C 31.882020 59.721450 50.297289                                                 
C 33.279440 57.496403 42.905032                                                 
C 33.225492 57.373672 50.018569                                                 
C 34.623095 59.824974 42.879858                                                 
C 35.926598 57.392518 49.754491                                                 
H 29.546969 63.911497 42.884307                                                 
H 32.195554 63.799124 50.347661                                                 
C 33.279155 62.200507 42.837220                                                 
C 33.233154 62.017526 50.181631                                                 
C 34.625183 64.480222 42.826971                                                 
C 35.891293 62.074245 50.036636                                                 
C 41.413130 57.665849 30.367489                                                 
C 41.420465 57.599838 36.779393                                                 
C 42.748030 60.001251 30.230091                                                 
C 44.116069 57.595410 36.777541                                                 
C 41.357119 57.481952 43.030140                                                 
C 41.309624 57.410944 49.425926                                                 
C 42.703419 59.812455 43.023863                                                 
C 44.009524 57.422397 49.369634                                                 
C 37.371532 59.974228 29.950709                                                 
C 37.381728 59.940704 36.828989                                                 
C 38.691721 62.310041 29.814826                                                 
C 40.077956 59.938344 36.813443                                                 
C 37.322715 59.820550 42.939409                                                 
C 37.256766 59.715550 49.808503                                                 
C 38.652965 62.154566 42.897578                                                 
C 39.952808 59.730076 49.682517                                                 
C 41.429659 52.991585 30.582399                                                 
C 41.406167 52.929763 36.769683                                                 
C 42.770892 55.334819 30.552919                                                 
C 44.100246 52.925504 36.788407                                                 
C 41.357169 52.812908 43.026009                                                 
C 41.325273 52.743465 49.198151                                                 
C 42.704883 55.144235 43.036882                                                 
C 44.023696 52.755044 49.134762                                                 
C 37.386458 55.306415 30.241946                                                 
C 37.373608 55.277004 36.783762                                                 
C 38.720710 57.650757 30.215600                                                 
C 40.064399 55.268928 36.769862                                                 
C 37.319568 55.147007 43.002373                                                 
C 37.276318 55.062023 49.514439                                                 
C 38.665607 57.484298 43.002427                                                 
C 39.965630 55.073470 49.337470                                                 
C 41.346905 67.015540 29.544888                                                 
C 41.445420 66.915608 36.953430                                                 
C 42.748279 69.312317 29.450682                                                 
C 44.108403 66.954271 36.954659                                                 
C 41.333116 66.850632 42.863527                                                 
C 41.289261 66.695619 50.245726                                                 
C 42.751897 69.143450 42.890501                                                 
C 43.949129 66.744213 50.238760                                                 
H 37.646558 68.757453 29.413737                                                 
H 40.420554 68.707013 37.082016                                                 
H 37.643760 68.614577 42.835598                                                 
H 40.253521 68.478746 50.402245                                                 
C 41.384879 62.323429 29.948135                                                 
C 41.441064 62.263342 36.875633                                                 
C 42.730164 64.674229 29.749693                                                 
C 44.122387 62.260730 36.815025                                                 
C 41.348996 62.150734 42.953741                                                 
C 41.306461 62.055650 49.903096                                                 
C 42.706907 64.499074 42.921006                                                 
C 43.986189 62.068367 49.823337                                                 
H 33.609357 66.387941 29.331203                                                 
H 33.584594 66.266577 42.797571                                                 
C 37.305401 64.674300 29.559960                                                 
C 37.409051 64.586470 36.896694                                                 
C 38.680749 66.971879 29.523695                                                 
C 40.069990 64.632727 37.027427                                                 
C 37.276621 64.531091 42.822463                                                 
C 37.259112 64.353200 50.139472                                                 
C 38.670178 66.821190 42.856903                                                 
C 39.922236 64.406356 50.235746                                                 
C 61.712211 41.474012 30.025207                                                 
C 61.541748 41.199227 36.767415                                                 
C 63.015908 43.716094 29.886042                                                 
H 63.605644 41.220723 36.654271                                                 
C 61.721967 46.072812 29.726805                                                 
C 61.544713 45.875500 36.918088                                                 
C 63.022235 48.409696 29.518787                                                 
H 63.612263 45.862444 37.051426                                                 
H 65.084384 43.730205 29.892321                                                 
C 61.566153 41.206661 42.829012                                                 
C 61.526675 41.137429 50.397200                                                 
C 62.884141 43.463862 42.752043                                                 
H 63.591481 41.164389 50.501077                                                 
C 61.606346 45.842601 42.722452                                                 
C 61.528615 45.826795 50.124373                                                 
C 62.912309 48.143647 42.719281                                                 
H 63.589240 45.837188 50.294650                                                 
H 64.950823 43.462604 42.715485                                                 
C 61.672782 55.429181 29.601247                                                 
C 61.591649 55.216271 37.036348                                                 
C 62.937592 57.806596 29.520272                                                 
H 63.655795 55.212794 37.172108                                                 
H 65.059690 53.133839 29.447416                                                 
C 61.621914 55.140979 42.851132                                                 
C 61.516877 55.134426 50.162184                                                 
C 62.897280 57.505246 42.882464                                                 
H 63.582322 55.121697 50.280778                                                 
H 64.991945 52.809452 42.845749                                                 
C 61.729392 50.750904 29.649910                                                 
C 61.581403 50.547618 36.891382                                                 
C 62.998517 53.110652 29.589677                                                 
H 65.075330 48.406300 29.278507                                                 
C 61.635407 50.467546 42.764215                                                 
C 61.513749 50.475351 50.079151                                                 
C 62.924833 52.812316 42.849736                                                 
H 64.979593 48.126583 42.663369                                                 
H 41.703771 71.093856 29.360976                                                 
H 44.484422 71.029840 37.152682                                                 
H 41.717705 70.933789 42.884933                                                 
H 44.297573 70.825823 50.433372                                                 
C 45.353932 69.313800 29.408202                                                 
C 45.521887 69.248057 37.041013                                                 
H 46.392727 71.099016 29.291871                                                 
C 48.145095 69.255898 37.000053                                                 
C 49.440964 67.000868 29.596391                                                 
C 49.565288 66.961364 36.933540                                                 
H 50.458181 68.792379 29.401507                                                 
C 52.236392 66.918213 36.964044                                                 
H 49.179980 71.040653 37.110765                                                 
C 45.350991 69.131138 42.855703                                                 
C 45.347758 69.047787 50.377655                                                 
H 46.400227 70.912617 42.808948                                                 
C 47.963037 69.059801 50.456705                                                 
C 49.425584 66.786960 42.937322                                                 
C 49.390269 66.768590 50.380325                                                 
H 50.455877 68.577238 42.838450                                                 
C 52.038670 66.756348 50.460693                                                 
H 48.992316 70.847277 50.575657                                                 
H 57.314507 66.344292 37.122839                                                 
H 57.121427 66.264993 50.494427                                                 
H 53.264134 68.710126 37.009803                                                 
H 53.046852 68.553477 50.629274                                                 
C 57.542353 62.383286 29.654325                                                 
C 57.608301 62.277735 37.064756                                                 
H 58.565581 64.173287 29.485932                                                 
C 60.307354 62.190408 37.046276                                                 
C 57.520260 62.125917 42.969514                                                 
C 57.493448 62.187332 50.264260                                                 
H 58.555238 63.912800 42.827016                                                 
C 60.190861 62.103766 50.452077                                                 
C 53.497413 64.688168 29.637740                                                 
C 53.617426 64.624877 37.049928                                                 
C 56.267671 64.561897 37.078393                                                 
C 53.465196 64.459118 42.955874                                                 
C 53.425178 64.501594 50.348899                                                 
C 56.108857 64.469243 50.344918                                                 
C 61.614950 60.045652 29.488537                                                 
C 61.601321 59.913166 36.999012                                                 
H 62.624591 61.848568 29.399450                                                 
H 63.667564 59.891263 37.014217                                                 
H 65.004809 57.814537 29.461770                                                 
H 61.346555 63.976761 37.076823                                                 
C 61.583704 59.758914 42.779569                                                 
C 61.497101 59.825503 50.450428                                                 
H 62.612995 61.548345 42.627786                                                 
H 63.553709 59.823194 50.650167                                                 
H 64.964484 57.504280 42.952664                                                 
H 61.220083 63.884444 50.654126                                                 
H 63.575077 50.471921 50.251751                                                 
H 36.334838 34.635162 50.158275                                                 
H 36.223142 66.133169 50.325775                                                 
H 27.187377 50.488865 42.777920                                                 
H 54.488666 66.252693 42.839364                                                 
H 63.630960 50.529081 37.193164                                                 
H 54.495995 34.724166 42.835353                                                 
H 36.316823 34.834782 36.914174                                                 
H 36.380412 66.375534 37.027876                                                 
H 54.516151 66.477378 29.438280                                                 
H 27.290888 50.611273 29.556021                                                 
H 54.688241 35.005490 29.507911                                                 
Li 58.911424 60.082743 33.501840                                                
Li 30.355871 43.494263 46.622054                                                
Li 44.017967 34.141654 33.027851                                                
Li 46.831801 66.958992 46.766773                                                
Li 60.303134 43.735982 46.304960                                                
Li 31.906304 60.177394 33.124493                                                
Li 51.351659 64.689058 33.447400                                                
Li 39.784427 65.050829 33.158995                                                
Li 60.527854 52.675882 46.323170                                                
Li 30.079544 52.693981 46.656255                                                
Li 35.540350 38.632575 46.272494                                                
Li 55.345343 38.477503 46.639329                                                
Li 36.148850 38.337421 33.059321                                                
Li 50.793843 36.178647 33.436462                                                
Li 40.146730 36.059772 46.302718                                                
Li 50.788933 35.896336 46.614136                                                
Li 54.785531 62.693345 46.686983                                                
Li 39.799936 64.701325 46.369297                                                
Li 30.321819 53.260535 33.465032                                                
Li 30.248407 48.057091 33.448311                                                
Li 32.033843 59.934673 46.371259                                                
Li 60.764070 53.277724 33.239800                                                
Li 55.362761 38.793022 33.512605                                                
Li 61.571384 48.059793 33.307650                                                
Li 46.615443 67.229207 33.419701                                                
Li 59.397765 60.066843 46.716448                                                
Li 31.666449 41.095991 33.034717                                                
Li 44.992800 32.244840 46.492560                                                
%ENDBLOCK POSITIONS_ABS                                                         

--------------------------------------------------------------------------------
-------------------------------- END INPUT FILE --------------------------------
--------------------------------------------------------------------------------


 
<<<<<<<<<<<<<<<<<<<<<<<<<<<<<<<<< Full system >>>>>>>>>>>>>>>>>>>>>>>>>>>>>>>>>>
<<<<<<<<<<<<<<<<<<<<<<<<<<< PAW Dataset information >>>>>>>>>>>>>>>>>>>>>>>>>>>
File: ~/pp/paw/c_pbe_abinit.paw; rc = 1.25 bohr; shape type =  3; rshape = 1.25 bohr;
  Atomic number:  6;  ionic charge:  4.000000
    Partial Wave 1: l = 0
    Partial Wave 2: l = 0
    Partial Wave 3: l = 1
    Partial Wave 4: l = 1
  Core charge supplied for Nonlinear Core Corrections
File: ~/pp/paw/h_pbe_abinit.paw; rc = 0.90 bohr; shape type =  3; rshape = 0.90 bohr;
  Atomic number:  1;  ionic charge:  1.000000
    Partial Wave 1: l = 0
    Partial Wave 2: l = 0
File: ~/pp/paw/li_pbe_abinit.paw; rc = 1.42 bohr; shape type =  3; rshape = 1.42 bohr;
  Atomic number:  3;  ionic charge:  3.000000
    Partial Wave 1: l = 0
    Partial Wave 2: l = 0
    Partial Wave 3: l = 0
    Partial Wave 4: l = 1
    Partial Wave 5: l = 1
<<<<<<<<<<<<<<<<<<<<<<<<<<<<<<<<<<<<<<< >>>>>>>>>>>>>>>>>>>>>>>>>>>>>>>>>>>>>>>

-------------------------- Atom counting information ---------------------------
Symbol    Natoms    Nngwfs    Nprojs
  C        484      1936      3872
  H        108       108       216
  Li        28       140       252
.......   ......    ......    ......
Totals:    620      2184      4340
--------------------------------------------------------------------------------

=============================== PSINC grid sizes ===============================
                      Simulation cell:  189 x 189 x 189
                              FFT-box:  117 x 117 x 117
                                  PPD:    7 x   7 x   1
Grid space d1=  0.499927596032a0 (KE cutoff=  30.39413Eh = 827.06648eV)
Grid space d2=  0.499927596032a0 (KE cutoff=  30.39413Eh = 827.06648eV)
Grid space d3=  0.499927596032a0 (KE cutoff=  30.39413Eh = 827.06648eV)
================================================================================
  
WARNING in cell_grid_distribute:
Average of less than one 23-slab per node, so workload cannot be
equally balanced between nodes.

********************* Fourier parallelisation information **********************
       Coarse grid (whole simulation cell) dimensions:    189   189   189
          Real-space ('12') slabs/node (min max mean):      1     2     1
         Recip-space ('23') slabs/node (min max mean):      0     1     0
********************************************************************************

********************* Fourier parallelisation information **********************
       Double grid (whole simulation cell) dimensions:    378   378   378
          Real-space ('12') slabs/node (min max mean):      2     3     2
         Recip-space ('23') slabs/node (min max mean):      1     2     1
********************************************************************************

Atom SCF Calculation for C  : Z (AE atom) =   6 : Z (PS atom) =   4
Config String: 2s2 2p2
Orbitals (num,occ):  2     2.00 2.00
Orbitals   (num,l):  2        0    1
Real-space Grid (nr,dr,rmax): 1377    0.0065406977    9.0000000000
Spherical Bessel Basis (nsws,lmax,cutoff):   37    2  183.0099912382
Confining potential (l,width,scale):  0    3.0000000000  100.0000000000
Confining potential (l,width,scale):  1    3.0000000000  100.0000000000
  1         -5.4350126632   -1.2715272878    4.5135247139   -1.5681949477
  2         -5.3876836850   -1.3562195125    4.4235426751   -1.5380057521
  3         -5.3928844498   -1.3758175853    4.4021699684   -1.5318377811
  4         -5.3988962903   -1.3800385428    4.3975423583   -1.5307324410
  5         -5.4018428823   -1.3823489590    4.3950111904   -1.5301555648
  6         -5.4033571720   -1.3835805046    4.3936635548   -1.5298576834
  7         -5.4041480647   -1.3842324820    4.3929512000   -1.5297032953
  8         -5.4045641108   -1.3845769138    4.3925755232   -1.5296229456
  9         -5.4047838258   -1.3847587737    4.3923775340   -1.5295810042
 10         -5.4049001347   -1.3848548089    4.3922731819   -1.5295590658
 11         -5.4049618018   -1.3849055476    4.3922181562   -1.5295475724
 12         -5.4049945351   -1.3849323732    4.3921891206   -1.5295415432
 13         -5.4050119258   -1.3849465673    4.3921737867   -1.5295383767
 14         -5.4050211723   -1.3849540841    4.3921656816   -1.5295367119
 15         -5.4050260920   -1.3849580684    4.3921613935   -1.5295358358
 16         -5.4050287113   -1.3849601822    4.3921591228   -1.5295353742
 17         -5.4050301068   -1.3849613045    4.3921579192   -1.5295351307
 18         -5.4050308507   -1.3849619010    4.3921572806   -1.5295350022
 19         -5.4050312476   -1.3849622183    4.3921569415   -1.5295349343
 20         -5.4050314594   -1.3849623873    4.3921567612   -1.5295348984
 21         -5.4050315725   -1.3849624773    4.3921566653   -1.5295348794
 22         -5.4050316330   -1.3849625253    4.3921566143   -1.5295348693
Atom SCF converged after  22 iterations to a total energy of     -5.40503163

Atom SCF Calculation for H  : Z (AE atom) =   1 : Z (PS atom) =   1
Config String: 1s1
Orbitals (num,occ):  1     1.00
Orbitals   (num,l):  1        0
Real-space Grid (nr,dr,rmax): 1377    0.0065406977    9.0000000000
Spherical Bessel Basis (nsws,lmax,cutoff):   37    1  183.0099912382
Confining potential (l,width,scale):  0    3.0000000000  100.0000000000
  1         -0.3605254152   -0.2399954029    0.2820952946   -0.2424203210
  2         -0.4156854077   -0.2398249290    0.2871789324   -0.2464796203
  3         -0.4412552402   -0.2379720642    0.2899127187   -0.2499011370
  4         -0.4517265951   -0.2371980236    0.2908966173   -0.2514141636
  5         -0.4557775773   -0.2369735141    0.2911607883   -0.2519713623
  6         -0.4573363459   -0.2369240355    0.2912108681   -0.2521663171
  7         -0.4579443228   -0.2369187864    0.2912112833   -0.2522344454
  8         -0.4581858602   -0.2369215483    0.2912049187   -0.2522587615
  9         -0.4582834939   -0.2369242589    0.2912002081   -0.2522677042
 10         -0.4583235236   -0.2369258837    0.2911975892   -0.2522710965
 11         -0.4583401154   -0.2369267223    0.2911962825   -0.2522724192
 12         -0.4583470483   -0.2369271266    0.2911956643   -0.2522729467
 13         -0.4583499624   -0.2369273145    0.2911953803   -0.2522731607
 14         -0.4583511926   -0.2369274000    0.2911952521   -0.2522732486
 15         -0.4583517136   -0.2369274385    0.2911951948   -0.2522732850
 16         -0.4583519349   -0.2369274556    0.2911951693   -0.2522733002
 17         -0.4583520290   -0.2369274632    0.2911951581   -0.2522733066
Atom SCF converged after  17 iterations to a total energy of     -0.45835203

Atom SCF Calculation for Li : Z (AE atom) =   3 : Z (PS atom) =   3
Config String: 1s2 2s1 2p0
Orbitals (num,occ):  3     2.00 1.00 0.00
Orbitals   (num,l):  3        0    0    1
Real-space Grid (nr,dr,rmax): 1377    0.0065406977    9.0000000000
Spherical Bessel Basis (nsws,lmax,cutoff):   37    2  183.0099912382
Confining potential (l,width,scale):  0    3.0000000000  100.0000000000
Confining potential (l,width,scale):  1    3.0000000000  100.0000000000
  1         -6.0640888065   -4.6655401716    2.5388576516   -0.9989538799
  2         -6.9627542978   -4.0954079129    2.9808988108   -1.1965571426
  3         -7.2692687601   -3.8889996707    3.2029735703   -1.3193883705
  4         -7.3784440298   -3.8322099748    3.2868571989   -1.3711018151
  5         -7.4170278248   -3.8191968371    3.3144974220   -1.3911175539
  6         -7.4303549880   -3.8172386945    3.3228486489   -1.3986896266
  7         -7.4348052089   -3.8175483495    3.3251259310   -1.4015352495
  8         -7.4362242328   -3.8180607346    3.3256233205   -1.4026016384
  9         -7.4366459715   -3.8184145665    3.3256561549   -1.4029998726
 10         -7.4367560626   -3.8186169740    3.3256001574   -1.4031477379
 11         -7.4367765260   -3.8187239825    3.3255481763   -1.4032021548
 12         -7.4367751741   -3.8187782620    3.3255144587   -1.4032219192
 13         -7.4367707398   -3.8188051288    3.3254952336   -1.4032289600
 14         -7.4367680349   -3.8188156035    3.3254870176   -1.4032309087
 15         -7.4367661982   -3.8188217406    3.3254819951   -1.4032318132
 16         -7.4367650112   -3.8188253257    3.3254789583   -1.4032322224
 17         -7.4367642682   -3.8188274151    3.3254771375   -1.4032324006
 18         -7.4367638134   -3.8188286307    3.3254760529   -1.4032324736
 19         -7.4367635392   -3.8188293370    3.3254754103   -1.4032325004
 20         -7.4367633760   -3.8188297469    3.3254750310   -1.4032325080
 21         -7.4367632796   -3.8188299846    3.3254748079   -1.4032325082
Atom SCF converged after  21 iterations to a total energy of     -7.43676328

Determining parallel strategy ...
... using space-filling curve
... NGWF load balancing: max     16;  min     12;  average     14
... Projector load balancing: max     32;  min     24;  average     27
... done
Calculating Ewald energy ...
              Ewald: real-space energy =   36156.666174
        Ewald: reciprocal-space energy =   35500.118214
         Ewald: (sum_charge)**2 Energy =    2810.263916
         Ewald: (sum_charge**2) Energy =     250.454669
                          Ewald Energy =   68596.065803
======================= Empirical dispersion information =======================
Model : Grimme D2
Dispersion Correction Energy: -0.22025764E+01 Hartree
================================================================================
Basis initialisation ...... NGWF spheres initialised
... Projector spheres initialised
... NGWF tight boxes initialised
... Projector tight boxes initialised
... Tight-boxes gathered
... NGWF basis size (local,global):     277822  44051040
... PAW projector initialisation
... done

============================= Charge Augmentation ==============================
                           Aug box size:   13 x  13 x  13
================================================================================

========================== Sparse matrix information ===========================
                        Overlap matrix filling:  37.70%
                        Density kernel filling: 100.00%
              NGWF-Proj overlap matrix filling:  10.62%
                    Aug Overlap matrix filling:  41.92%
                    Hamiltonian matrix filling:  41.92%
                  NGWF diagonal matrix filling:   0.18%
                             KS matrix filling: 100.00% 
                           KSKS matrix filling: 100.00% 
================================================================================

Sparse matrix initialisation ... done
NGWF initialisation ...... done
============ Calculation of NGWF S^-1 using Hotelling algorithm ================ 
         Iteration  |  Frobenius norm and Maximum abs value    (of I-S*S_n^-1)   
               1       0.46398658E+02     0.99628067E+00
               2       0.46082594E+02     0.99258733E+00
               3       0.45500288E+02     0.98527576E+00
               4       0.44500830E+02     0.97093528E+00
               5       0.42966713E+02     0.94326647E+00
               6       0.40907827E+02     0.89130848E+00
               7       0.38397392E+02     0.79793893E+00
               8       0.35485834E+02     0.77777122E+00
               9       0.32397926E+02     0.75403791E+00
              10       0.29410406E+02     0.73496723E+00
              11       0.26253997E+02     0.71444952E+00
              12       0.22267730E+02     0.67766145E+00
              13       0.17053481E+02     0.61308034E+00
              14       0.10948435E+02     0.51561990E+00
              15       0.55245601E+01     0.37027386E+00
              16       0.25757485E+01     0.24547048E+00
              17       0.15466005E+01     0.15930943E+00
              18       0.82258887E+00     0.92437378E-01
              19       0.24934553E+00     0.32113713E-01
              20       0.25143985E-01     0.38836005E-02
              21       0.31032710E-03     0.56945392E-04
              22       0.59635648E-07     0.12290553E-07
              23       0.67990927E-13     0.44686477E-14
================================================================================
Calculating core density ...
================================= Core Density =================================
               Core den box size:   21 x  21 x  21
================================================================================
 ... done
Up spin density kernel initialisation ...... done
Down spin density kernel initialisation ...... done

Writing density kernel to file "28/592nano.dkn" ... done

>>> Optimising kernel for current NGWFs:

--------------------------- Ensemble-DFT optimisation --------------------------
Running ScaLAPACK on  160 processor(s).

--------------------------------------------------------------------------------
  Iter                              Commutator    Free_energy(A=E-TS)     DeltaA
#    0                          0.001173656063   -3027.41398760695847  -3.03E+03

Step                       =       0.381966011250
Energy                     =   -3027.397810612438
Entropy (-TS)              =      -0.016176994067
Free energy (A=E-TS)       =   -3027.413987606958
Est. 0K Energy 0.5*(E+A)   =   -3027.405899109698
Residual Non-orthogonality =       0.000000000000
Residual N_electrons       =      -0.000000000453

Spin          Integrated_Ne            Fermi_level     Delta_Fermi_level
   1      1063.999999999055        -0.239962024039             -2.40E-01
   2      1063.999999999055        -0.239962024038             -2.40E-01

                           Spin 1           |                 Spin 2           |
     Orb |    H-eigenvalues     Occupancies |    H-eigenvalues     Occupancies |
       1 |    -1.8787796194    1.0000000000 |    -1.8787796194    1.0000000000 | 
                          ------                             ------
    1060 |    -0.2543861105    0.9895924989 |    -0.2543861105    0.9895924989 | 
    1061 |    -0.2535337934    0.9864219003 |    -0.2535337934    0.9864219003 | 
    1062 |    -0.2526022534    0.9818624869 |    -0.2526022534    0.9818624869 | 
    1063 |    -0.2484208993    0.9352997290 |    -0.2484208993    0.9352997290 | 
    1064 |    -0.2435093358    0.7540170044 |    -0.2435093358    0.7540170044 | 
                 - Gap at zero temperature - |     - Gap at zero temperature -
    1065 |    -0.2341800978    0.1387408103 |    -0.2341800978    0.1387408103 | 
    1066 |    -0.2337768245    0.1242122898 |    -0.2337768245    0.1242122898 | 
    1067 |    -0.2290124479    0.0305429341 |    -0.2290124479    0.0305429341 | 
    1068 |    -0.2287974140    0.0285951787 |    -0.2287974140    0.0285951787 | 
    1069 |    -0.2267633093    0.0152497545 |    -0.2267633093    0.0152497545 | 
                          ------                             ------
    2184 |     0.5596509380    0.0000000000 |     0.5596509380    0.0000000000 | 

                       |  Abs_value |  Threshold | Converged
     Delta_Free_energy |   3.03E+03 |   1.00E-06 |        No
     Delta_Energy      |   3.03E+03 |   1.00E-04 |        No
     Delta_Entropy     |   1.62E-02 |   1.00E-04 |        No
     Commutator        |   1.17E-03 |   1.00E-05 |        No
     Delta_Fermi_level |   2.40E-01 |   1.00E-03 |        No

  Line search of the free energy minimum:
  Step_type        Step             Free_energy   Predicted_free_energy
.   Initial    0.000000    -3027.41398760695847
.    Trial1    0.381966    -3027.64176546937824
.    Trial2    0.618034    -3024.51933292818921
. Quadratic    0.204314    -3028.23571289342453    -3028.34765311732144

--------------------------------------------------------------------------------
  Iter                              Commutator    Free_energy(A=E-TS)     DeltaA
#    1                          0.000699715897   -3028.23571289342453  -8.22E-01

Step                       =       0.204313971375
Energy                     =   -3028.208975652537
Entropy (-TS)              =      -0.026737240705
Free energy (A=E-TS)       =   -3028.235712893425
Est. 0K Energy 0.5*(E+A)   =   -3028.222344272981
Residual Non-orthogonality =       0.000000000000
Residual N_electrons       =      -0.000000000182

Spin          Integrated_Ne            Fermi_level     Delta_Fermi_level
   1      1063.999999999427        -0.225677361282              1.43E-02
   2      1063.999999999765        -0.225677361242              1.43E-02

                           Spin 1           |                 Spin 2           |
     Orb |    H-eigenvalues     Occupancies |    H-eigenvalues     Occupancies |
       1 |    -1.9179685339    1.0000000000 |    -1.9179685338    1.0000000000 | 
                          ------                             ------
    1060 |    -0.2355903070    0.9581238593 |    -0.2355903070    0.9581238593 | 
    1061 |    -0.2342400599    0.9372555864 |    -0.2342400598    0.9372555864 | 
    1062 |    -0.2323836713    0.8926102511 |    -0.2323836713    0.8926102511 | 
    1063 |    -0.2314484362    0.8608492365 |    -0.2314484362    0.8608492365 | 
    1064 |    -0.2292786261    0.7571632588 |    -0.2292786260    0.7571632588 | 
                 - Gap at zero temperature - |     - Gap at zero temperature -
    1065 |    -0.2210498688    0.1882767308 |    -0.2210498687    0.1882767308 | 
    1066 |    -0.2200031901    0.1428568789 |    -0.2200031900    0.1428568789 | 
    1067 |    -0.2191237765    0.1121009259 |    -0.2191237764    0.1121009259 | 
    1068 |    -0.2178100799    0.0769667982 |    -0.2178100799    0.0769667982 | 
    1069 |    -0.2154824301    0.0384456775 |    -0.2154824300    0.0384456775 | 
                          ------                             ------
[...]
 C    80 -- C   538       -0.08      0.00      5.41427
 C    40 -- C   102       -0.08     -0.00      5.41529
 C   231 -- C   241       -0.08      0.00      5.41543
 C    70 -- C   104       -0.09      0.00      5.41549
 C    70 -- C   120       -0.09      0.00      5.41600
 C   188 -- C   286       -0.08      0.00      5.41638
 C   430 -- C   480       -0.08     -0.00      5.41685
 C    85 -- C    95       -0.08     -0.00      5.41687
 C   293 -- C   295       -0.08     -0.00      5.41692
 C    74 -- C   488       -0.09      0.00      5.41694
 C    35 -- C    41       -0.09      0.00      5.41707
 C   105 -- C   477       -0.09      0.00      5.41708
 C    35 -- C   497       -0.08      0.00      5.41750
 C    82 -- C   492       -0.09      0.00      5.41840
 C   185 -- C   299       -0.09     -0.00      5.41855
 C    62 -- C   368       -0.09     -0.00      5.41872
 C   262 -- C   460       -0.09      0.00      5.41873
 C    79 -- C    89       -0.08      0.00      5.41876
 C    51 -- C    57       -0.09     -0.00      5.41929
 C    87 -- C    93       -0.08      0.00      5.41954
 C   293 -- C   421       -0.09     -0.00      5.42006
 C   220 -- C   238       -0.08     -0.00      5.42013
 C    99 -- C   121       -0.09     -0.00      5.42016
 C   205 -- C   263       -0.08      0.00      5.42032
 C    96 -- C   126       -0.09      0.00      5.42036
 C   332 -- C   388       -0.08      0.00      5.42047
 C   260 -- C   420       -0.09      0.00      5.42129
 C    77 -- C    91       -0.08     -0.00      5.42130
 C    75 -- C   463       -0.09      0.00      5.42139
 C   186 -- C   212       -0.08     -0.00      5.42150
 H   587 -- Li  608       -0.02     -0.00      5.42176
 C    38 -- C   104       -0.08      0.00      5.42178
 C    36 -- C    98       -0.08     -0.00      5.42225
 C    51 -- C   521       -0.08     -0.00      5.42259
 C   252 -- C   406       -0.09     -0.00      5.42362
 C    56 -- C   342       -0.09      0.00      5.42375
 C    67 -- C   511       -0.09      0.00      5.42425
 C    73 -- C    79       -0.09      0.00      5.42444
 C   182 -- C   188       -0.09     -0.00      5.42496
 C    71 -- C   516       -0.09     -0.00      5.42496
 C   328 -- Li  620       -0.04      0.00      5.42652
 C   230 -- C   318       -0.09     -0.00      5.42707
 C   183 -- C   237       -0.08      0.00      5.42746
 C   477 -- C   485       -0.08      0.00      5.42808
 C   262 -- C   292       -0.08      0.00      5.42831
 C    88 -- C   560       -0.08      0.00      5.42947
 C    83 -- C   467       -0.09     -0.00      5.42966
 C   186 -- C   192       -0.08     -0.00      5.42981
 C   319 -- C   361       -0.08      0.00      5.42981
 C   333 -- C   365       -0.08     -0.00      5.43118
 C   385 -- C   395       -0.08     -0.00      5.43118
 C    69 -- C    95       -0.08     -0.00      5.43124
 C   481 -- C   489       -0.08      0.00      5.43127
 C   224 -- C   242       -0.08     -0.00      5.43149
 C   285 -- C   287       -0.08      0.00      5.43202
 H   162 -- Li  612       -0.03     -0.00      5.43229
 C   330 -- C   394       -0.08      0.00      5.43265
 C   103 -- C   525       -0.08      0.00      5.43266
 C   197 -- C   199       -0.09     -0.00      5.43335
 H   154 -- Li  607       -0.02     -0.00      5.43385
 C   364 -- C   390       -0.08      0.00      5.43390
 C   377 -- C   391       -0.08     -0.00      5.43451
 C   189 -- C   255       -0.08     -0.00      5.43470
 C   202 -- C   216       -0.08     -0.00      5.43486
 C   233 -- C   239       -0.08      0.00      5.43520
 C    34 -- C   100       -0.08      0.00      5.43636
 C   227 -- C   309       -0.08     -0.00      5.43698
 C   316 -- C   390       -0.08      0.00      5.43726
 C   343 -- C   506       -0.08     -0.00      5.43743
 C   253 -- C   413       -0.08     -0.00      5.43784
 C   254 -- C   284       -0.08      0.00      5.43809
 H   581 -- Li  601       -0.03     -0.00      5.43845
 C    68 -- C   556       -0.08     -0.00      5.43945
 C   232 -- Li  620       -0.06     -0.00      5.44005
 C   368 -- C   394       -0.08      0.00      5.44022
 C    99 -- C   521       -0.08      0.00      5.44043
 C   185 -- C   235       -0.08      0.00      5.44182
 C   198 -- C   204       -0.08     -0.00      5.44229
 C   190 -- C   284       -0.08      0.00      5.44230
 C   470 -- C   547       -0.08     -0.00      5.44304
 C    96 -- C   567       -0.08     -0.00      5.44311
 C   201 -- C   239       -0.08      0.00      5.44378
 C    76 -- C   564       -0.07      0.00      5.44641
 C   261 -- C   427       -0.08     -0.00      5.44993
 C   466 -- C   538       -0.08     -0.00      5.45693
 C   181 -- C   183       -0.08     -0.00      5.45721
 C    72 -- C   560       -0.08     -0.00      5.45764
 H   130 -- Li  619       -0.02     -0.00      5.47108
 H   141 -- Li  619       -0.02     -0.00      5.50611
 H   591 -- Li  612       -0.02      0.00      5.51550
 H   583 -- Li  610       -0.02      0.00      5.52244
 H   412 -- Li  598       -0.02      0.00      5.52603
 C   231 -- Li  620       -0.03      0.00      5.53128
 H   561 -- Li  609       -0.02      0.00      5.53147
 H   561 -- Li  618       -0.02     -0.00      5.53434
 H   165 -- Li  594       -0.02     -0.00      5.54224
 H   474 -- Li  610       -0.02      0.00      5.54431
 H   426 -- Li  613       -0.02     -0.00      5.54724
 H   592 -- Li  615       -0.02      0.00      5.55319
 H   141 -- Li  605       -0.02     -0.00      5.56457
 H   519 -- Li  601       -0.02     -0.00      5.56547
 C   327 -- Li  620       -0.04      0.00      5.57131
 H   509 -- Li  597       -0.02     -0.00      5.57953
 H   401 -- Li  598       -0.02     -0.00      5.58358
 H   548 -- Li  596       -0.02     -0.00      5.58430
 C    91 -- Li  599       -0.06     -0.00      5.58451
 H   151 -- Li  595       -0.02      0.00      5.60052
 H   586 -- Li  614       -0.01     -0.00      5.60385
 H   582 -- Li  607       -0.02     -0.00      5.60583
 H   544 -- Li  596       -0.02     -0.00      5.61086
 H   591 -- Li  611       -0.02     -0.00      5.61119
 H   582 -- Li  603       -0.02     -0.00      5.63115
 H   135 -- Li  595       -0.02      0.00      5.64237
 C   238 -- Li  605       -0.06      0.00      5.65359
 H   592 -- Li  606       -0.01     -0.00      5.65475
 H   520 -- Li  601       -0.02      0.00      5.66025
 H   535 -- Li  617       -0.02     -0.00      5.66251
 H   131 -- Li  594       -0.02      0.00      5.66481
=============================================================


============== Orbital energy and occupancy information for spin 1 =============

      Total number of orbitals:    2184
        Occupancy sum (kernel):    1064.000000024
   Occupancy sum (eigenvalues):    1064.000000024
                 HOMO-LUMO gap:       0.005817351 Eh
                 Mid-gap level:      -0.087131203 Eh

                        Orbital | Energy (Eh) | Occupancy
                            1    -1.842617223   1.0000000
                        .......   ...........   .........
                         1055    -0.104044236   0.9935328
                         1056    -0.103631796   0.9926303
                         1057    -0.101837438   0.9871760
                         1058    -0.100985150   0.9834411
                         1059    -0.099774515   0.9757000
                         1060    -0.098825157   0.9676473
                         1061    -0.096407582   0.9329090
                         1062    -0.094842965   0.8946045
                         1063    -0.094028217   0.8678417
                         1064    -0.090039878   0.6498794
                        ....... -- gap at 0K -- .........
                         1065    -0.084222527   0.2283548
                         1066    -0.083661513   0.1985424
                         1067    -0.080859684   0.0926128
                         1068    -0.079760196   0.0672430
                         1069    -0.078224798   0.0427174
                         1070    -0.077912635   0.0389355
                         1071    -0.077364830   0.0327891
                         1072    -0.076474646   0.0249898
                         1073    -0.073887821   0.0111795
                         1074    -0.073487842   0.0098939
                        .......   ...........   .........
                         2184     0.771292598   0.0000000

================================================================================

============== Orbital energy and occupancy information for spin 2 =============

      Total number of orbitals:    2184
        Occupancy sum (kernel):    1063.999999975
   Occupancy sum (eigenvalues):    1063.999999975
                 HOMO-LUMO gap:       0.005817351 Eh
                 Mid-gap level:      -0.087131202 Eh

                        Orbital | Energy (Eh) | Occupancy
                            1    -1.842617223   1.0000000
                        .......   ...........   .........
                         1055    -0.104044236   0.9935328
                         1056    -0.103631796   0.9926303
                         1057    -0.101837438   0.9871760
                         1058    -0.100985150   0.9834411
                         1059    -0.099774515   0.9757000
                         1060    -0.098825157   0.9676473
                         1061    -0.096407582   0.9329090
                         1062    -0.094842965   0.8946045
                         1063    -0.094028217   0.8678417
                         1064    -0.090039878   0.6498794
                        ....... -- gap at 0K -- .........
                         1065    -0.084222527   0.2283548
                         1066    -0.083661513   0.1985424
                         1067    -0.080859684   0.0926128
                         1068    -0.079760196   0.0672430
                         1069    -0.078224798   0.0427174
                         1070    -0.077912635   0.0389355
                         1071    -0.077364830   0.0327891
                         1072    -0.076474646   0.0249898
                         1073    -0.073887821   0.0111795
                         1074    -0.073487842   0.0098939
                        .......   ...........   .........
                         2184     0.771292598   0.0000000

================================================================================

===================== Writing canonical molecular orbitals =====================
    Spin 1
| Orbital  Energy (eV)  Norm     |
| HOMO     -2.45010975  1.000000 | Writing "28/592nano_HOMO_UP.cube" ... done
Writing "28/592nano_HOMO_UP.dx" ... done
| LUMO     -2.29181158  1.000000 | Writing "28/592nano_LUMO_UP.cube" ... done
Writing "28/592nano_LUMO_UP.dx" ... done
================================================================================

===================== Writing canonical molecular orbitals =====================
    Spin 2
| Orbital  Energy (eV)  Norm     |
| HOMO     -2.45010975  1.000000 | Writing "28/592nano_HOMO_DN.cube" ... done
Writing "28/592nano_HOMO_DN.dx" ... done
| LUMO     -2.29181158  1.000000 | Writing "28/592nano_LUMO_DN.cube" ... done
Writing "28/592nano_LUMO_DN.dx" ... done
================================================================================

================== Local Density of States (LDOS) calculation ==================
Writing "28/592nano_UP_LDOS.txt" ...  done
================================================================================

================== Local Density of States (LDOS) calculation ==================
Writing "28/592nano_DN_LDOS.txt" ...  done
================================================================================
 
=============== Density of States (DOS) calculation for UP spin ================
Writing "28/592nano_UP_DOS.txt" ...  done
================================================================================
 
============== Density of States (DOS) calculation for DOWN spin ===============
Writing "28/592nano_DN_DOS.txt" ...  done
================================================================================
 
Writing bands to file "28/592nano.val_bands" ... done
 
================ Projected Density of States (pDOS) calculation ================
 
Constructing AM resolved functions  ...... done
Writing NGWF plot files in formats: CUBE DX ...  done
 
Performing overlap integrals ...  done
 
Computing pDOS weights ...  done
 
All bands spilling parameter =   3.06 %
Occupancy-weighted spilling parameter =   0.89 %
 
 => Outputting data for OptaDOS <=
 
Writing pDOS weights to file "28/592nano.val_pdos_bin" ... done
 
Writing band gradients to file "28/592nano.val_dome_bin" ... done
 
Writing Castep output cell file to "28/592nano-out.cell" ... done
 
 => Computing Gaussian smeared pDOS for UP spin<= 
Writing "28/592nano_UP_PDOS.txt" ...  done
 
 => Computing Gaussian smeared pDOS for DOWN spin<= 
Writing "28/592nano_DN_PDOS.txt" ...  done
 
 => Computing Occupancy-weighted Gaussian smeared pDOS for UP spin<= 
Writing "28/592nano_occ_UP_PDOS.txt" ...  done
  => Band centres for UP spin channel: 
 S band centre of group 1:  -17.211277 eV
 P band centre of group 1:   -7.996271 eV
  Band centres for UP spin channel done. <= 
  => Integrated number of electrons in each AM band for UP spin channel: 
 S num electrons of group 1:  292.988513
 P num electrons of group 1:  761.502367
  Integrated number of electrons for UP spin channel done. <= 
 
 => Computing Occupancy-weighted Gaussian smeared pDOS for DOWN spin<= 
Writing "28/592nano_occ_DN_PDOS.txt" ...  done
  => Band centres for DOWN spin channel: 
 S band centre of group 1:  -17.211277 eV
 P band centre of group 1:   -7.996271 eV
  Band centres for DOWN spin channel done. <=
  => Integrated number of electrons in each AM band for DOWN spin channel: 
 S num electrons of group 1:  292.988513
 P num electrons of group 1:  761.502367
  Integrated number of electrons for DOWN spin channel done. <=
================================================================================

------------------------------ TIMING INFORMATION ------------------------------
AVERAGE TIME:   14959.649s on    160 node(s)                                    
TOTAL TIME:     14959.660s on    160 node(s)                                    
================= AVERAGE TIMINGS FROM ALL NODES (CUMULATIVE) ==================
|| TAG                                    #calls    cpu time   %total  Gflops ||
|| work_imbalance                       :     1        0.00s   0.000%  ------ ||
|| paw_tcore_density                    :     1        0.01s   0.000%  ------ ||
|| sparse_set_to_garbage                :   237        0.01s   0.000%  ------ ||
|| paw_sphere_density_on_grid           :     1        0.01s   0.000%  ------ ||
|| basis_extract_function_from_box      :   382        0.02s   0.000%  ------ ||
|| paw_dij_hartree                      :   890        0.03s   0.000%  ------ ||
|| ngwfs_initialise_from_radial         :     2        0.04s   0.000%  ------ ||
|| ewald_calculate_energy               :     1        0.14s   0.001%  ------ ||
|| density_init_guess_real              :     1        0.29s   0.002%  ------ ||
|| paw_tcore_hartree_on_grid            :     1        0.37s   0.002%  ------ ||
|| pseudo_make_structure_factor         :     1        0.54s   0.004%  ------ ||
|| dense_normal_eigensolve              :     1        0.90s   0.006%  ------ ||
|| sparse_init                          :     1        0.99s   0.007%  ------ ||
|| paw_dataset_init                     :     3        1.08s   0.007%  ------ ||
|| restart_kernel_write                 :    15        1.99s   0.013%  ------ ||
|| paw_species_calc_proj_prec_mat       :     1        2.20s   0.015%  ------ ||
|| sparse_embed_hotelling_invert_embed  :    27        5.16s   0.035%  ------ ||
|| sw_init                              :     1        7.55s   0.050%  ------ ||
|| fourier_apply_box_pair               :   956       10.83s   0.072%  2.333k ||
|| ngwf_gradient_coeffs                 :    14       12.13s   0.081%  ------ ||
|| augmentation_screen_dij              :   669       13.26s   0.089%  ------ ||
|| projectors_init_fftbox_recip         :    57       21.76s   0.145%  ------ ||
|| hartree_on_grid                      :   664       30.57s   0.204%  ------ ||
|| integrals_kinetic                    :    27       32.42s   0.217%  ------ ||
|| basis_copy_function_to_box           : 24720       32.51s   0.217%  ------ ||
|| function_ops_brappd_ketppd           :    56       37.63s   0.252%  ------ ||
|| paw_dij_xc                           :   890       37.96s   0.254%  ------ ||
|| projectors_func_ovlp_box             :    28       39.70s   0.265%  ------ ||
|| hamiltonian_energy_components        :     3       69.04s   0.462%  ------ ||
|| sparse_trace                         : 16604       75.49s   0.505%  ------ ||
|| eigenstates_pdos                     :     1      100.51s   0.672%  ------ ||
|| fourier_apply_cell_forward           :  5968      103.40s   0.691% 200.882 ||
|| augmentation_density_on_grid         :   664      107.44s   0.718%  ------ ||
|| fourier_apply_cell_backward          :  5969      108.02s   0.722% 192.336 ||
|| aug_nonlocal_mat                     :   876      118.49s   0.792%  ------ ||
|| basis_dot_function_with_box          : 5.262M     146.87s   0.982%  ------ ||
|| restart_ngwfs_tightbox_output        :    13      208.68s   1.395%  ------ ||
|| eigenstates_calculate                :     1      213.23s   1.425%  ------ ||
|| xc_energy_potential                  :   663      218.65s   1.462%  ------ ||
|| dense_eigensolve                     :  1266      350.84s   2.345%  ------ ||
|| sparse_product                       : 14375      366.46s   2.450%  ------ ||
|| integrals_locpot_mat_els_batch       :   439      471.40s   3.151%  ------ ||
|| basis_add_function_to_box            : 16.18M     528.92s   3.536%  ------ ||
|| projectors_gradient_batch            :    14      613.41s   4.100%  ------ ||
|| cell_grid_extract_box_real           : 14182      653.22s   4.367%  ------ ||
|| cell_grid_deposit_box_real           : 47897      695.99s   4.652%  ------ ||
|| projectors_grad_precond_batch        :    14      851.08s   5.689%  ------ ||
|| density_batch_row_sums               :   664     1264.64s   8.454%  ------ ||
|| density_fftbox_deposit_to_cell       : 21248     1299.26s   8.685%  ------ ||
|| edft_diag_ngwf_ham                   :  1264     1446.66s   9.670%  ------ ||
|| potential_apply_to_ngwf_batch        :   439     1531.75s  10.239%  ------ ||
|| properties_calculate                 :     1     1574.00s  10.522%  ------ ||
|| ngwf_gradient_build_batch            :    14     1626.64s  10.874%  ------ ||
|| fourier_apply_box                    : 78957     1677.17s  11.211%  4.071k ||
|| ngwf_gradient_batch                  :    14     1764.04s  11.792%  ------ ||
|| ngwf_gradient_lnv                    :    14     1785.55s  11.936%  ------ ||
|| density_fftbox_interpolate_multiply  : 21248     1912.13s  12.782%  ------ ||
|| integrals_locpot_dbl_grid            :   439     2018.75s  13.495%  ------ ||
|| edft_apply_smearing_operator         :   632     2425.09s  16.211%  ------ ||
|| density_batch_interp_deposit         :   664     3864.27s  25.831%  ------ ||
|| density_on_dbl_grid                  :   664     5238.75s  35.019%  ------ ||
|| hamiltonian_lhxc_calculate           :   659     5721.06s  38.243%  ------ ||
|| edft_calculate                       :    14    10377.82s  69.372%  ------ ||
|| ngwf_cg_optimise                     :     1    13364.17s  89.335%  ------ ||
|| total_time                           :     1    14959.65s 100.000%  ------ ||
================================================================================
Overhead of generating timer report: 
- 0 ms averaging over threads,
- 25 ms ensuring consistency across MPI ranks,
- 0 ms printing in order.

Job completed: 25-09-2020 19:16 (+0100)

