 +---------------------------------------------------------------+
 |                                                               |
 |        ####### #     # ####### ####### ####### ######         |
 |        #     # ##    # #          #    #       #     #        |
 |        #     # # #   # #          #    #       #     #        |
 |        #     # #  #  # #####      #    #####   ######         |
 |        #     # #   # # #          #    #       #              |
 |        #     # #    ## #          #    #       #              |
 |        ####### #     # #######    #    ####### #              |
 |                                                               |
 |        Linear-Scaling Ab Initio Total Energy Program          |
 |                                                               |
 |          Release for academic collaborators of ODG            |
 |                                             Version 5.3.2.12  |
 |                                                               |
 +---------------------------------------------------------------+
 |                                                               |
 |  Authors:                                                     |
 |  Jacek Dziedzic, Peter D. Haynes, Nicholas D. M. Hine,        |
 |  Arash. A. Mostofi, Mike C. Payne and Chris-Kriton Skylaris   |
 |                                                               |
 |  Contributors:                                                |
 |  J. Aarons, L. Andrinopoulos, P. W. Avraam, R. A. Bell,       |
 |  A. Bhandari, G. A. Bramley, R. J. Charlton, S. J. Clark,     |
 |  R. J. Clements, G. C. Constantinescu, F. Corsetti,           |
 |  N. Corsini, O. Dieguez, S. M. M. Dubois, K. K. B. Duff,      |
 |  J. M. Escartin, A. Greco, H. Helal, Q. O. Hill, L. P. Lee,   |
 |  J.-H. Li, E. B. Linscott, G. Moynihan, D. D. O`Regan,        |
 |  O. K. Okan, M. J. S. Phipps, C. J. Pickard,                  |
 |  J. C. A. Prentice, M. I. J. Probert, L. E. Ratcliff,         |
 |  M. Robinson, A. Ruiz Serrano, J. S. Spencer, E. W. Tait,     |
 |  G. Teobaldi, D. Turban, V. Vitale, K. A. Wilkinson,          |
 |  C. Weber, J. C. Womack, N. Yeung and T. J. Zuehlsdorff       |
 |                                                               |
 |                                   Copyright (c) 2004-2020     |
 |                                                               |
 |  Please cite:                                                 |
 |  "Introducing ONETEP: Linear-scaling density functional       |
 |   simulations on parallel computers".                         |
 |   C.-K. Skylaris, P. D. Haynes, A. A. Mostofi, M. C. Payne.   |
 |   J. Chem. Phys. 122 084119 (2005).                           |
 |                                                               |
 |          in all publications arising from your use of ONETEP. |
 |                                                               |
 +---------------------------------------------------------------+
 |                                                               |
 |   ONETEP is based on developments described in the following  |
 |   publications:                                               |
 |                                                               |
 |  "Nonorthogonal generalized Wannier function pseudopotential  |
 |   plane-wave method".                                         |
 |   C.-K. Skylaris, A. A. Mostofi, P. D. Haynes, O. Dieguez,    |
 |   M. C. Payne.                                                |
 |   Phys. Rev. B 66 035119 (2002).                              |
 |                                                               |
 |  "Preconditioned iterative minimization for linear-scaling    |
 |   electronic structure calculations".                         |
 |   A. A. Mostofi, P. D. Haynes, C.-K. Skylaris, M. C. Payne.   |
 |   J. Chem. Phys. 119(17), pp.8842-8848 (2003).                |
 |                                                               |
 |  "Total-energy calculations on a real space grid with         |
 |   localized functions and a plane-wave basis".                |
 |   A. A. Mostofi, C.-K. Skylaris, P. D. Haynes, M. C. Payne.   |
 |   Comput. Phys. Commun. 147, pp.788-802 (2002).               |
 |                                                               |
 |  "Accurate kinetic energy evaluation in electronic structure  |
 |   calculations with localized functions on real space grids"  |
 |   C.-K. Skylaris, A. A. Mostofi, P. D. Haynes, C. J. Pickard, |
 |   M. C. Payne.                                                |
 |   Comput. Phys. Commun. 140, pp.315-322 (2001).               |
 |                                                               |
 |  "Accurate ionic forces and geometry optimization in linear-  |
 |   scaling density-functional theory with local orbitals"      |
 |   N. D. M. Hine, M. Robinson, P. D. Haynes, C.-K. Skylaris,   |
 |   M. C. Payne, and A. A. Mostofi.                             |
 |   Phys. Rev. B 83 195102 (2011).                              |
 |                                                               |
 +---------------------------------------------------------------+

Job started: 21-02-2020 15:23 (-0000)
 
Reading parameters from file "3.1661816_GO_manual_4x64graphite.dat" ...

WARNING: "cutoff_energy" not specified, but "psinc_spacing" specified.
         Using the latter to set the KE cutoff energy to  732.32021eV,
         thus *overriding* the default.

... done

If your calculation crashes here, before "Checking processes and threads..."
is displayed, then your stack size is insufficient.
If so, use "ulimit -s unlimited" at runtime.
You can disable this check with "check_stack_size F".

Checking processes and threads...
   Determining the default number of threads...
      No default threads set at compilation time: defaulting to 1.
      OpenMP library call suggests 4 threads.
      Hybrid MPI-OpenMP compilation detected.
      Number of MPI processes > 1.
      OMP_NUM_THREADS environment variable present and
      its value matches the one obtained from the OpenMP library call.
      Using this value as default.
      Default threads: 4
      Default applies to threads_max and threads_num_fftboxes.
      Settings in the input file override this default.
   ... done

   Running with 40 MPI processes.
   There are 10 MPI processes running on the same node as the root process.
   Each MPI process is using: 
               1 threads for simulation cell FFTs.
               1 threads for parallel FFT box operations.
               4 threads for loops over batched FFT box operations.
               4 threads in other parallel regions.
... done

Basic input checks...
Resetting ngwf_cg_rotate to TRUE for EDFT calculations
... done

Reading geometry and species blocks from file "3.1661816_GO_manual_4x64graphite.dat" ...
    
  PSINC grid spacing along a1 set to   0.511215680000a0 from input file.
  PSINC grid spacing along a2 set to   0.531284090000a0 from input file.
  PSINC grid spacing along a3 set to   0.507053250000a0 from input file.
  Number of PPD points along a3 set to 1.  This is 
  the default value, it may have been provided also in the input file.
... done
 Writing xyz coordinates to file "3.1661816_GO_manual_4x64graphite.xyz" ... done


--------------------------------------------------------------------------------
---------------------------------- INPUT FILE ----------------------------------
--------------------------------------------------------------------------------

task : singlepoint                                                              
do_properties : true                                                            
dx_format T                                                                     
edft T                                                                          
output_detail VERBOSE                                                           
write_xyz T                                                                     
xc_functional AVV10S                                                            
PSINC_SPACING 0.51121568 0.53128409 0.50705325                                  
paw T                                                                           
pdos_max_l = 2                                                                  
dos_smear  0.1 eV                                                               
popn_calculate T                                                                
PDOS_PSEUDOATOMIC T                                                             
PDOS_REDUCE_SWS F                                                               
PDOS_CONSTRUCT_BASIS F                                                          
PDOS_LOWDIN T                                                                   
PDOS_ORTH_ATOM_BLOCKS F                                                         
PDOS_LCAO_OPTIMIZE F                                                            
pdos_optados_output T                                                           
homo_plot 0                                                                     
lumo_plot 0                                                                     
homo_dens_plot -1                                                               
lumo_dens_plot -1                                                               
%BLOCK SPECIES                                                                  
C C 6 4 9.0                                                                     
%ENDBLOCK SPECIES                                                               
%BLOCK SPECIES_POT                                                              
C "~/pp/paw/c_pbe_abinit.paw"                                                   
%ENDBLOCK SPECIES_POT                                                           
%BLOCK SPECIES_ATOMIC_SET                                                       
C "SOLVE conf=2s2 2p2"                                                          
%ENDBLOCK SPECIES_ATOMIC_SET                                                    
%BLOCK LATTICE_CART                                                             
32.21  0.00  0.00                                                               
0.00 18.59  0.00                                                                
0.00  0.00 59.83                                                                
%ENDBLOCK LATTICE_CART                                                          
%BLOCK POSITIONS_ABS                                                            
C  0.00  0.00  2.99                                                             
C  0.00  0.00 14.96                                                             
C  0.00  0.00 26.92                                                             
C  0.00  0.00 38.89                                                             
C  0.00  0.00 50.86                                                             
C  0.00  4.65  2.99                                                             
C  0.00  4.65 14.96                                                             
C  0.00  4.65 26.92                                                             
C  0.00  4.65 38.89                                                             
C  0.00  4.65 50.86                                                             
C  4.03  2.32  2.99                                                             
C  4.03  2.32 14.96                                                             
C  4.03  2.32 26.92                                                             
C  4.03  2.32 38.89                                                             
C  4.03  2.32 50.86                                                             
C  8.05  0.00  2.99                                                             
C  8.05  0.00 14.96                                                             
C  8.05  0.00 26.92                                                             
C  8.05  0.00 38.89                                                             
C  8.05  0.00 50.86                                                             
C  0.00  9.30  2.99                                                             
C  0.00  9.30 14.96                                                             
C  0.00  9.30 26.92                                                             
C  0.00  9.30 38.89                                                             
C  0.00  9.30 50.86                                                             
C  4.03  6.97  2.99                                                             
C  4.03  6.97 14.96                                                             
C  4.03  6.97 26.92                                                             
C  4.03  6.97 38.89                                                             
C  4.03  6.97 50.86                                                             
C  8.05  4.65  2.99                                                             
C  8.05  4.65 14.96                                                             
C  8.05  4.65 26.92                                                             
C  8.05  4.65 38.89                                                             
C  8.05  4.65 50.86                                                             
C 12.08  2.32  2.99                                                             
C 12.08  2.32 14.96                                                             
C 12.08  2.32 26.92                                                             
C 12.08  2.32 38.89                                                             
C 12.08  2.32 50.86                                                             
C 16.10  0.00  2.99                                                             
C 16.10  0.00 14.96                                                             
C 16.10  0.00 26.92                                                             
C 16.10  0.00 38.89                                                             
C 16.10  0.00 50.86                                                             
C  0.00 13.95  2.99                                                             
C  0.00 13.95 14.96                                                             
C  0.00 13.95 26.92                                                             
C  0.00 13.95 38.89                                                             
C  0.00 13.95 50.86                                                             
C  4.03 11.62  2.99                                                             
C  4.03 11.62 14.96                                                             
C  4.03 11.62 26.92                                                             
C  4.03 11.62 38.89                                                             
C  4.03 11.62 50.86                                                             
C  8.05  9.30  2.99                                                             
C  8.05  9.30 14.96                                                             
C  8.05  9.30 26.92                                                             
C  8.05  9.30 38.89                                                             
C  8.05  9.30 50.86                                                             
C 12.08  6.97  2.99                                                             
C 12.08  6.97 14.96                                                             
C 12.08  6.97 26.92                                                             
C 12.08  6.97 38.89                                                             
C 12.08  6.97 50.86                                                             
C 16.10  4.65  2.99                                                             
C 16.10  4.65 14.96                                                             
C 16.10  4.65 26.92                                                             
C 16.10  4.65 38.89                                                             
C 16.10  4.65 50.86                                                             
C 20.13  2.32  2.99                                                             
C 20.13  2.32 14.96                                                             
C 20.13  2.32 26.92                                                             
C 20.13  2.32 38.89                                                             
C 20.13  2.32 50.86                                                             
C 24.16  0.00  2.99                                                             
C 24.16  0.00 14.96                                                             
C 24.16  0.00 26.92                                                             
C 24.16  0.00 38.89                                                             
C 24.16  0.00 50.86                                                             
C  4.03 16.27  2.99                                                             
C  4.03 16.27 14.96                                                             
C  4.03 16.27 26.92                                                             
C  4.03 16.27 38.89                                                             
C  4.03 16.27 50.86                                                             
C  8.05 13.95  2.99                                                             
C  8.05 13.95 14.96                                                             
C  8.05 13.95 26.92                                                             
C  8.05 13.95 38.89                                                             
C  8.05 13.95 50.86                                                             
C 12.08 11.62  2.99                                                             
C 12.08 11.62 14.96                                                             
C 12.08 11.62 26.92                                                             
C 12.08 11.62 38.89                                                             
C 12.08 11.62 50.86                                                             
C 16.10  9.30  2.99                                                             
C 16.10  9.30 14.96                                                             
C 16.10  9.30 26.92                                                             
C 16.10  9.30 38.89                                                             
C 16.10  9.30 50.86                                                             
C 20.13  6.97  2.99                                                             
C 20.13  6.97 14.96                                                             
C 20.13  6.97 26.92                                                             
C 20.13  6.97 38.89                                                             
C 20.13  6.97 50.86                                                             
C 24.16  4.65  2.99                                                             
C 24.16  4.65 14.96                                                             
C 24.16  4.65 26.92                                                             
C 24.16  4.65 38.89                                                             
C 24.16  4.65 50.86                                                             
C 28.18  2.32  2.99                                                             
C 28.18  2.32 14.96                                                             
C 28.18  2.32 26.92                                                             
C 28.18  2.32 38.89                                                             
C 28.18  2.32 50.86                                                             
C 12.08 16.27  2.99                                                             
C 12.08 16.27 14.96                                                             
C 12.08 16.27 26.92                                                             
C 12.08 16.27 38.89                                                             
C 12.08 16.27 50.86                                                             
C 16.10 13.95  2.99                                                             
C 16.10 13.95 14.96                                                             
C 16.10 13.95 26.92                                                             
C 16.10 13.95 38.89                                                             
C 16.10 13.95 50.86                                                             
C 20.13 11.62  2.99                                                             
C 20.13 11.62 14.96                                                             
C 20.13 11.62 26.92                                                             
C 20.13 11.62 38.89                                                             
C 20.13 11.62 50.86                                                             
C 24.16  9.30  2.99                                                             
C 24.16  9.30 14.96                                                             
C 24.16  9.30 26.92                                                             
C 24.16  9.30 38.89                                                             
C 24.16  9.30 50.86                                                             
C 28.18  6.97  2.99                                                             
C 28.18  6.97 14.96                                                             
C 28.18  6.97 26.92                                                             
C 28.18  6.97 38.89                                                             
C 28.18  6.97 50.86                                                             
C 20.13 16.27  2.99                                                             
C 20.13 16.27 14.96                                                             
C 20.13 16.27 26.92                                                             
C 20.13 16.27 38.89                                                             
C 20.13 16.27 50.86                                                             
C 24.16 13.95  2.99                                                             
C 24.16 13.95 14.96                                                             
C 24.16 13.95 26.92                                                             
C 24.16 13.95 38.89                                                             
C 24.16 13.95 50.86                                                             
C 28.18 11.62  2.99                                                             
C 28.18 11.62 14.96                                                             
C 28.18 11.62 26.92                                                             
C 28.18 11.62 38.89                                                             
C 28.18 11.62 50.86                                                             
C 28.18 16.27  2.99                                                             
C 28.18 16.27 14.96                                                             
C 28.18 16.27 26.92                                                             
C 28.18 16.27 38.89                                                             
C 28.18 16.27 50.86                                                             
C  0.00  0.00  8.97                                                             
C  0.00  0.00 20.94                                                             
C  0.00  0.00 32.91                                                             
C  0.00  0.00 44.87                                                             
C  0.00  0.00 56.84                                                             
C  0.00  4.65  8.97                                                             
C  0.00  4.65 20.94                                                             
C  0.00  4.65 32.91                                                             
C  0.00  4.65 44.87                                                             
C  0.00  4.65 56.84                                                             
C  4.03  2.32  8.97                                                             
C  4.03  2.32 20.94                                                             
C  4.03  2.32 32.91                                                             
C  4.03  2.32 44.87                                                             
C  4.03  2.32 56.84                                                             
C  8.05  0.00  8.97                                                             
C  8.05  0.00 20.94                                                             
C  8.05  0.00 32.91                                                             
C  8.05  0.00 44.87                                                             
C  8.05  0.00 56.84                                                             
C  0.00  9.30  8.97                                                             
C  0.00  9.30 20.94                                                             
C  0.00  9.30 32.91                                                             
C  0.00  9.30 44.87                                                             
C  0.00  9.30 56.84                                                             
C  4.03  6.97  8.97                                                             
C  4.03  6.97 20.94                                                             
C  4.03  6.97 32.91                                                             
C  4.03  6.97 44.87                                                             
C  4.03  6.97 56.84                                                             
C  8.05  4.65  8.97                                                             
C  8.05  4.65 20.94                                                             
C  8.05  4.65 32.91                                                             
C  8.05  4.65 44.87                                                             
C  8.05  4.65 56.84                                                             
C 12.08  2.32  8.97                                                             
C 12.08  2.32 20.94                                                             
C 12.08  2.32 32.91                                                             
C 12.08  2.32 44.87                                                             
C 12.08  2.32 56.84                                                             
C 16.10  0.00  8.97                                                             
C 16.10  0.00 20.94                                                             
C 16.10  0.00 32.91                                                             
C 16.10  0.00 44.87                                                             
C 16.10  0.00 56.84                                                             
C  0.00 13.95  8.97                                                             
C  0.00 13.95 20.94                                                             
C  0.00 13.95 32.91                                                             
C  0.00 13.95 44.87                                                             
C  0.00 13.95 56.84                                                             
C  4.03 11.62  8.97                                                             
C  4.03 11.62 20.94                                                             
C  4.03 11.62 32.91                                                             
C  4.03 11.62 44.87                                                             
C  4.03 11.62 56.84                                                             
C  8.05  9.30  8.97                                                             
C  8.05  9.30 20.94                                                             
C  8.05  9.30 32.91                                                             
C  8.05  9.30 44.87                                                             
C  8.05  9.30 56.84                                                             
C 12.08  6.97  8.97                                                             
C 12.08  6.97 20.94                                                             
C 12.08  6.97 32.91                                                             
C 12.08  6.97 44.87                                                             
C 12.08  6.97 56.84                                                             
C 16.10  4.65  8.97                                                             
C 16.10  4.65 20.94                                                             
C 16.10  4.65 32.91                                                             
C 16.10  4.65 44.87                                                             
C 16.10  4.65 56.84                                                             
C 20.13  2.32  8.97                                                             
C 20.13  2.32 20.94                                                             
C 20.13  2.32 32.91                                                             
C 20.13  2.32 44.87                                                             
C 20.13  2.32 56.84                                                             
C 24.16  0.00  8.97                                                             
C 24.16  0.00 20.94                                                             
C 24.16  0.00 32.91                                                             
C 24.16  0.00 44.87                                                             
C 24.16  0.00 56.84                                                             
C  4.03 16.27  8.97                                                             
C  4.03 16.27 20.94                                                             
C  4.03 16.27 32.91                                                             
C  4.03 16.27 44.87                                                             
C  4.03 16.27 56.84                                                             
C  8.05 13.95  8.97                                                             
C  8.05 13.95 20.94                                                             
C  8.05 13.95 32.91                                                             
C  8.05 13.95 44.87                                                             
C  8.05 13.95 56.84                                                             
C 12.08 11.62  8.97                                                             
C 12.08 11.62 20.94                                                             
C 12.08 11.62 32.91                                                             
C 12.08 11.62 44.87                                                             
C 12.08 11.62 56.84                                                             
C 16.10  9.30  8.97                                                             
C 16.10  9.30 20.94                                                             
C 16.10  9.30 32.91                                                             
C 16.10  9.30 44.87                                                             
C 16.10  9.30 56.84                                                             
C 20.13  6.97  8.97                                                             
C 20.13  6.97 20.94                                                             
C 20.13  6.97 32.91                                                             
C 20.13  6.97 44.87                                                             
C 20.13  6.97 56.84                                                             
C 24.16  4.65  8.97                                                             
C 24.16  4.65 20.94                                                             
C 24.16  4.65 32.91                                                             
C 24.16  4.65 44.87                                                             
C 24.16  4.65 56.84                                                             
C 28.18  2.32  8.97                                                             
C 28.18  2.32 20.94                                                             
C 28.18  2.32 32.91                                                             
C 28.18  2.32 44.87                                                             
C 28.18  2.32 56.84                                                             
C 12.08 16.27  8.97                                                             
C 12.08 16.27 20.94                                                             
C 12.08 16.27 32.91                                                             
C 12.08 16.27 44.87                                                             
C 12.08 16.27 56.84                                                             
C 16.10 13.95  8.97                                                             
C 16.10 13.95 20.94                                                             
C 16.10 13.95 32.91                                                             
C 16.10 13.95 44.87                                                             
C 16.10 13.95 56.84                                                             
C 20.13 11.62  8.97                                                             
C 20.13 11.62 20.94                                                             
C 20.13 11.62 32.91                                                             
C 20.13 11.62 44.87                                                             
C 20.13 11.62 56.84                                                             
C 24.16  9.30  8.97                                                             
C 24.16  9.30 20.94                                                             
C 24.16  9.30 32.91                                                             
C 24.16  9.30 44.87                                                             
C 24.16  9.30 56.84                                                             
C 28.18  6.97  8.97                                                             
C 28.18  6.97 20.94                                                             
C 28.18  6.97 32.91                                                             
C 28.18  6.97 44.87                                                             
C 28.18  6.97 56.84                                                             
C 20.13 16.27  8.97                                                             
C 20.13 16.27 20.94                                                             
C 20.13 16.27 32.91                                                             
C 20.13 16.27 44.87                                                             
C 20.13 16.27 56.84                                                             
C 24.16 13.95  8.97                                                             
C 24.16 13.95 20.94                                                             
C 24.16 13.95 32.91                                                             
C 24.16 13.95 44.87                                                             
C 24.16 13.95 56.84                                                             
C 28.18 11.62  8.97                                                             
C 28.18 11.62 20.94                                                             
C 28.18 11.62 32.91                                                             
C 28.18 11.62 44.87                                                             
C 28.18 11.62 56.84                                                             
C 28.18 16.27  8.97                                                             
C 28.18 16.27 20.94                                                             
C 28.18 16.27 32.91                                                             
C 28.18 16.27 44.87                                                             
C 28.18 16.27 56.84                                                             
C  1.34  2.32  2.99                                                             
C  1.34  2.32 14.96                                                             
C  1.34  2.32 26.92                                                             
C  1.34  2.32 38.89                                                             
C  1.34  2.32 50.86                                                             
C  5.37  0.00  2.99                                                             
C  5.37  0.00 14.96                                                             
C  5.37  0.00 26.92                                                             
C  5.37  0.00 38.89                                                             
C  5.37  0.00 50.86                                                             
C  1.34  6.97  2.99                                                             
C  1.34  6.97 14.96                                                             
C  1.34  6.97 26.92                                                             
C  1.34  6.97 38.89                                                             
C  1.34  6.97 50.86                                                             
C  5.37  4.65  2.99                                                             
C  5.37  4.65 14.96                                                             
C  5.37  4.65 26.92                                                             
C  5.37  4.65 38.89                                                             
C  5.37  4.65 50.86                                                             
C  9.39  2.32  2.99                                                             
C  9.39  2.32 14.96                                                             
C  9.39  2.32 26.92                                                             
C  9.39  2.32 38.89                                                             
C  9.39  2.32 50.86                                                             
C 13.42  0.00  2.99                                                             
C 13.42  0.00 14.96                                                             
C 13.42  0.00 26.92                                                             
C 13.42  0.00 38.89                                                             
C 13.42  0.00 50.86                                                             
C  1.34 11.62  2.99                                                             
C  1.34 11.62 14.96                                                             
C  1.34 11.62 26.92                                                             
C  1.34 11.62 38.89                                                             
C  1.34 11.62 50.86                                                             
C  5.37  9.30  2.99                                                             
C  5.37  9.30 14.96                                                             
C  5.37  9.30 26.92                                                             
C  5.37  9.30 38.89                                                             
C  5.37  9.30 50.86                                                             
C  9.39  6.97  2.99                                                             
C  9.39  6.97 14.96                                                             
C  9.39  6.97 26.92                                                             
C  9.39  6.97 38.89                                                             
C  9.39  6.97 50.86                                                             
C 13.42  4.65  2.99                                                             
C 13.42  4.65 14.96                                                             
C 13.42  4.65 26.92                                                             
C 13.42  4.65 38.89                                                             
C 13.42  4.65 50.86                                                             
C 17.45  2.32  2.99                                                             
C 17.45  2.32 14.96                                                             
C 17.45  2.32 26.92                                                             
C 17.45  2.32 38.89                                                             
C 17.45  2.32 50.86                                                             
C 21.47  0.00  2.99                                                             
C 21.47  0.00 14.96                                                             
C 21.47  0.00 26.92                                                             
C 21.47  0.00 38.89                                                             
C 21.47  0.00 50.86                                                             
C  1.34 16.27  2.99                                                             
C  1.34 16.27 14.96                                                             
C  1.34 16.27 26.92                                                             
C  1.34 16.27 38.89                                                             
C  1.34 16.27 50.86                                                             
C  5.37 13.95  2.99                                                             
C  5.37 13.95 14.96                                                             
C  5.37 13.95 26.92                                                             
C  5.37 13.95 38.89                                                             
C  5.37 13.95 50.86                                                             
C  9.39 11.62  2.99                                                             
C  9.39 11.62 14.96                                                             
C  9.39 11.62 26.92                                                             
C  9.39 11.62 38.89                                                             
C  9.39 11.62 50.86                                                             
C 13.42  9.30  2.99                                                             
C 13.42  9.30 14.96                                                             
C 13.42  9.30 26.92                                                             
C 13.42  9.30 38.89                                                             
C 13.42  9.30 50.86                                                             
C 17.45  6.97  2.99                                                             
C 17.45  6.97 14.96                                                             
C 17.45  6.97 26.92                                                             
C 17.45  6.97 38.89                                                             
C 17.45  6.97 50.86                                                             
C 21.47  4.65  2.99                                                             
C 21.47  4.65 14.96                                                             
C 21.47  4.65 26.92                                                             
C 21.47  4.65 38.89                                                             
C 21.47  4.65 50.86                                                             
C 25.50  2.32  2.99                                                             
C 25.50  2.32 14.96                                                             
C 25.50  2.32 26.92                                                             
C 25.50  2.32 38.89                                                             
C 25.50  2.32 50.86                                                             
C 29.52  0.00  2.99                                                             
C 29.52  0.00 14.96                                                             
C 29.52  0.00 26.92                                                             
C 29.52  0.00 38.89                                                             
C 29.52  0.00 50.86                                                             
C  9.39 16.27  2.99                                                             
C  9.39 16.27 14.96                                                             
C  9.39 16.27 26.92                                                             
C  9.39 16.27 38.89                                                             
C  9.39 16.27 50.86                                                             
C 13.42 13.95  2.99                                                             
C 13.42 13.95 14.96                                                             
C 13.42 13.95 26.92                                                             
C 13.42 13.95 38.89                                                             
C 13.42 13.95 50.86                                                             
C 17.45 11.62  2.99                                                             
C 17.45 11.62 14.96                                                             
C 17.45 11.62 26.92                                                             
C 17.45 11.62 38.89                                                             
C 17.45 11.62 50.86                                                             
C 21.47  9.30  2.99                                                             
C 21.47  9.30 14.96                                                             
C 21.47  9.30 26.92                                                             
C 21.47  9.30 38.89                                                             
C 21.47  9.30 50.86                                                             
C 25.50  6.97  2.99                                                             
C 25.50  6.97 14.96                                                             
C 25.50  6.97 26.92                                                             
C 25.50  6.97 38.89                                                             
C 25.50  6.97 50.86                                                             
C 29.52  4.65  2.99                                                             
C 29.52  4.65 14.96                                                             
C 29.52  4.65 26.92                                                             
C 29.52  4.65 38.89                                                             
C 29.52  4.65 50.86                                                             
C 17.45 16.27  2.99                                                             
C 17.45 16.27 14.96                                                             
C 17.45 16.27 26.92                                                             
C 17.45 16.27 38.89                                                             
C 17.45 16.27 50.86                                                             
C 21.47 13.95  2.99                                                             
C 21.47 13.95 14.96                                                             
C 21.47 13.95 26.92                                                             
C 21.47 13.95 38.89                                                             
C 21.47 13.95 50.86                                                             
C 25.50 11.62  2.99                                                             
C 25.50 11.62 14.96                                                             
C 25.50 11.62 26.92                                                             
C 25.50 11.62 38.89                                                             
C 25.50 11.62 50.86                                                             
C 29.52  9.30  2.99                                                             
C 29.52  9.30 14.96                                                             
C 29.52  9.30 26.92                                                             
C 29.52  9.30 38.89                                                             
C 29.52  9.30 50.86                                                             
C 25.50 16.27  2.99                                                             
C 25.50 16.27 14.96                                                             
C 25.50 16.27 26.92                                                             
C 25.50 16.27 38.89                                                             
C 25.50 16.27 50.86                                                             
C 29.52 13.95  2.99                                                             
C 29.52 13.95 14.96                                                             
C 29.52 13.95 26.92                                                             
C 29.52 13.95 38.89                                                             
C 29.52 13.95 50.86                                                             
C  2.68  0.00  8.97                                                             
C  2.68  0.00 20.94                                                             
C  2.68  0.00 32.91                                                             
C  2.68  0.00 44.87                                                             
C  2.68  0.00 56.84                                                             
C  2.68  4.65  8.97                                                             
C  2.68  4.65 20.94                                                             
C  2.68  4.65 32.91                                                             
C  2.68  4.65 44.87                                                             
C  2.68  4.65 56.84                                                             
C  6.71  2.32  8.97                                                             
C  6.71  2.32 20.94                                                             
C  6.71  2.32 32.91                                                             
C  6.71  2.32 44.87                                                             
C  6.71  2.32 56.84                                                             
C 10.74  0.00  8.97                                                             
C 10.74  0.00 20.94                                                             
C 10.74  0.00 32.91                                                             
C 10.74  0.00 44.87                                                             
C 10.74  0.00 56.84                                                             
C  2.68  9.30  8.97                                                             
C  2.68  9.30 20.94                                                             
C  2.68  9.30 32.91                                                             
C  2.68  9.30 44.87                                                             
C  2.68  9.30 56.84                                                             
C  6.71  6.97  8.97                                                             
C  6.71  6.97 20.94                                                             
C  6.71  6.97 32.91                                                             
C  6.71  6.97 44.87                                                             
C  6.71  6.97 56.84                                                             
C 10.74  4.65  8.97                                                             
C 10.74  4.65 20.94                                                             
C 10.74  4.65 32.91                                                             
C 10.74  4.65 44.87                                                             
C 10.74  4.65 56.84                                                             
C 14.76  2.32  8.97                                                             
C 14.76  2.32 20.94                                                             
C 14.76  2.32 32.91                                                             
C 14.76  2.32 44.87                                                             
C 14.76  2.32 56.84                                                             
C 18.79  0.00  8.97                                                             
C 18.79  0.00 20.94                                                             
C 18.79  0.00 32.91                                                             
C 18.79  0.00 44.87                                                             
C 18.79  0.00 56.84                                                             
C  2.68 13.95  8.97                                                             
C  2.68 13.95 20.94                                                             
C  2.68 13.95 32.91                                                             
C  2.68 13.95 44.87                                                             
C  2.68 13.95 56.84                                                             
C  6.71 11.62  8.97                                                             
C  6.71 11.62 20.94                                                             
C  6.71 11.62 32.91                                                             
C  6.71 11.62 44.87                                                             
C  6.71 11.62 56.84                                                             
C 10.74  9.30  8.97                                                             
C 10.74  9.30 20.94                                                             
C 10.74  9.30 32.91                                                             
C 10.74  9.30 44.87                                                             
C 10.74  9.30 56.84                                                             
C 14.76  6.97  8.97                                                             
C 14.76  6.97 20.94                                                             
C 14.76  6.97 32.91                                                             
C 14.76  6.97 44.87                                                             
C 14.76  6.97 56.84                                                             
C 18.79  4.65  8.97                                                             
C 18.79  4.65 20.94                                                             
C 18.79  4.65 32.91                                                             
C 18.79  4.65 44.87                                                             
C 18.79  4.65 56.84                                                             
C 22.81  2.32  8.97                                                             
C 22.81  2.32 20.94                                                             
C 22.81  2.32 32.91                                                             
C 22.81  2.32 44.87                                                             
C 22.81  2.32 56.84                                                             
C 26.84  0.00  8.97                                                             
C 26.84  0.00 20.94                                                             
C 26.84  0.00 32.91                                                             
C 26.84  0.00 44.87                                                             
C 26.84  0.00 56.84                                                             
C  6.71 16.27  8.97                                                             
C  6.71 16.27 20.94                                                             
C  6.71 16.27 32.91                                                             
C  6.71 16.27 44.87                                                             
C  6.71 16.27 56.84                                                             
C 10.74 13.95  8.97                                                             
C 10.74 13.95 20.94                                                             
C 10.74 13.95 32.91                                                             
C 10.74 13.95 44.87                                                             
C 10.74 13.95 56.84                                                             
C 14.76 11.62  8.97                                                             
C 14.76 11.62 20.94                                                             
C 14.76 11.62 32.91                                                             
C 14.76 11.62 44.87                                                             
C 14.76 11.62 56.84                                                             
C 18.79  9.30  8.97                                                             
C 18.79  9.30 20.94                                                             
C 18.79  9.30 32.91                                                             
C 18.79  9.30 44.87                                                             
C 18.79  9.30 56.84                                                             
C 22.81  6.97  8.97                                                             
C 22.81  6.97 20.94                                                             
C 22.81  6.97 32.91                                                             
C 22.81  6.97 44.87                                                             
C 22.81  6.97 56.84                                                             
C 26.84  4.65  8.97                                                             
C 26.84  4.65 20.94                                                             
C 26.84  4.65 32.91                                                             
C 26.84  4.65 44.87                                                             
C 26.84  4.65 56.84                                                             
C 30.86  2.32  8.97                                                             
C 30.86  2.32 20.94                                                             
C 30.86  2.32 32.91                                                             
C 30.86  2.32 44.87                                                             
C 30.86  2.32 56.84                                                             
C 14.76 16.27  8.97                                                             
C 14.76 16.27 20.94                                                             
C 14.76 16.27 32.91                                                             
C 14.76 16.27 44.87                                                             
C 14.76 16.27 56.84                                                             
C 18.79 13.95  8.97                                                             
C 18.79 13.95 20.94                                                             
C 18.79 13.95 32.91                                                             
C 18.79 13.95 44.87                                                             
C 18.79 13.95 56.84                                                             
C 22.81 11.62  8.97                                                             
C 22.81 11.62 20.94                                                             
C 22.81 11.62 32.91                                                             
C 22.81 11.62 44.87                                                             
C 22.81 11.62 56.84                                                             
C 26.84  9.30  8.97                                                             
C 26.84  9.30 20.94                                                             
C 26.84  9.30 32.91                                                             
C 26.84  9.30 44.87                                                             
C 26.84  9.30 56.84                                                             
C 30.86  6.97  8.97                                                             
C 30.86  6.97 20.94                                                             
C 30.86  6.97 32.91                                                             
C 30.86  6.97 44.87                                                             
C 30.86  6.97 56.84                                                             
C 22.81 16.27  8.97                                                             
C 22.81 16.27 20.94                                                             
C 22.81 16.27 32.91                                                             
C 22.81 16.27 44.87                                                             
C 22.81 16.27 56.84                                                             
C 26.84 13.95  8.97                                                             
C 26.84 13.95 20.94                                                             
C 26.84 13.95 32.91                                                             
C 26.84 13.95 44.87                                                             
C 26.84 13.95 56.84                                                             
C 30.86 11.62  8.97                                                             
C 30.86 11.62 20.94                                                             
C 30.86 11.62 32.91                                                             
C 30.86 11.62 44.87                                                             
C 30.86 11.62 56.84                                                             
C 30.86 16.27  8.97                                                             
C 30.86 16.27 20.94                                                             
C 30.86 16.27 32.91                                                             
C 30.86 16.27 44.87                                                             
C 30.86 16.27 56.84                                                             
%ENDBLOCK POSITIONS_ABS                                                         

--------------------------------------------------------------------------------
-------------------------------- END INPUT FILE --------------------------------
--------------------------------------------------------------------------------


 
<<<<<<<<<<<<<<<<<<<<<<<<<<<<<<<<< Full system >>>>>>>>>>>>>>>>>>>>>>>>>>>>>>>>>>
<<<<<<<<<<<<<<<<<<<<<<<<<<< PAW Dataset information >>>>>>>>>>>>>>>>>>>>>>>>>>>
File: ~/pp/paw/c_pbe_abinit.paw; rc = 1.25 bohr; shape type =  3; rshape = 1.25 bohr;
  Atomic number:  6;  ionic charge:  4.000000
    Partial Wave 1: l = 0
    Partial Wave 2: l = 0
    Partial Wave 3: l = 1
    Partial Wave 4: l = 1
  Core charge supplied for Nonlinear Core Corrections
<<<<<<<<<<<<<<<<<<<<<<<<<<<<<<<<<<<<<<< >>>>>>>>>>>>>>>>>>>>>>>>>>>>>>>>>>>>>>>

-------------------------- Atom counting information ---------------------------
Symbol    Natoms    Nngwfs    Nprojs
  C        640      2560      5120
.......   ......    ......    ......
Totals:    640      2560      5120
--------------------------------------------------------------------------------

=============================== PSINC grid sizes ===============================
                      Simulation cell:   63 x  35 x 118
                              FFT-box:   63 x  35 x 117
                                  PPD:    7 x   5 x   1
Grid space d1=  0.511269841270a0 (KE cutoff=  29.06054Eh = 790.77748eV)
Grid space d2=  0.531142857143a0 (KE cutoff=  26.92659Eh = 732.70972eV)
Grid space d3=  0.507033898305a0 (KE cutoff=  29.54813Eh = 804.04555eV)
================================================================================
  
WARNING in cell_grid_distribute:
Average of less than one 23-slab per node, so workload cannot be
equally balanced between nodes.

********************* Fourier parallelisation information **********************
       Coarse grid (whole simulation cell) dimensions:     63    35   118
          Real-space ('12') slabs/node (min max mean):      2     3     2
         Recip-space ('23') slabs/node (min max mean):      0     1     0
********************************************************************************

********************* Fourier parallelisation information **********************
       Double grid (whole simulation cell) dimensions:    126    70   236
          Real-space ('12') slabs/node (min max mean):      5     6     5
         Recip-space ('23') slabs/node (min max mean):      1     2     1
********************************************************************************

Atom SCF Calculation for C  : Z (AE atom) =   6 : Z (PS atom) =   4
Config String: 2s2 2p2
Orbitals (num,occ):  2     2.00 2.00
Orbitals   (num,l):  2        0    1
Real-space Grid (nr,dr,rmax): 1293    0.0069659443    9.0000000000
Spherical Bessel Basis (nsws,lmax,cutoff):   37    2  161.4736382572
Confining potential (l,width,scale):  0    3.0000000000  100.0000000000
Confining potential (l,width,scale):  1    3.0000000000  100.0000000000
  1         -5.4129360987   -1.2444937266    4.5135257941   -1.5420271367
  2         -5.3444202281   -1.3377187790    4.4131101426   -1.5071921700
  3         -5.3525226456   -1.3566567794    4.3924752240   -1.5004938544
  4         -5.3561013121   -1.3623552809    4.3862114699   -1.4986199617
  5         -5.3580093800   -1.3653574582    4.3828991843   -1.4976654093
  6         -5.3590276761   -1.3669475005    4.3811409016   -1.4971696795
  7         -5.3595688314   -1.3677934914    4.3802040659   -1.4969088858
  8         -5.3598556216   -1.3682449178    4.3797036984   -1.4967706290
  9         -5.3600074081   -1.3684862338    4.3794360452   -1.4966970063
 10         -5.3600877081   -1.3686153812    4.3792927313   -1.4966576988
 11         -5.3601301919   -1.3686845537    4.3792159394   -1.4966366788
 12         -5.3601526758   -1.3687216261    4.3791747687   -1.4966254262
 13         -5.3601645804   -1.3687415049    4.3791526850   -1.4966193980
 14         -5.3601708871   -1.3687521691    4.3791408341   -1.4966161667
 15         -5.3601742301   -1.3687578926    4.3791344719   -1.4966144337
 16         -5.3601760032   -1.3687609656    4.3791310549   -1.4966135039
 17         -5.3601769442   -1.3687626162    4.3791292190   -1.4966130048
 18         -5.3601774440   -1.3687635032    4.3791282322   -1.4966127369
 19         -5.3601777096   -1.3687639799    4.3791277016   -1.4966125929
 20         -5.3601778508   -1.3687642363    4.3791274162   -1.4966125155
 21         -5.3601779259   -1.3687643743    4.3791272626   -1.4966124740
Atom SCF converged after  21 iterations to a total energy of     -5.36017793

Determining parallel strategy ...
... using space-filling curve
... NGWF load balancing: max     64;  min     64;  average     64
... Projector load balancing: max    128;  min    128;  average    128
... done
Calculating Ewald energy ...
              Ewald: real-space energy =    9534.921797
        Ewald: reciprocal-space energy =       0.038880
         Ewald: (sum_charge)**2 Energy =   11534.361834
         Ewald: (sum_charge**2) Energy =     911.871369
                          Ewald Energy =   -2911.272526
Basis initialisation ...... NGWF spheres initialised
... Projector spheres initialised
... NGWF tight boxes initialised
... Projector tight boxes initialised
... Tight-boxes gathered
... NGWF basis size (local,global):     694868  27907776
... PAW projector initialisation
... done

============================= Charge Augmentation ==============================
                           Aug box size:   11 x  11 x  11
================================================================================

========================== Sparse matrix information ===========================
                        Overlap matrix filling:  44.84%
                        Density kernel filling: 100.00%
              NGWF-Proj overlap matrix filling:  13.12%
                    Aug Overlap matrix filling:  47.97%
                    Hamiltonian matrix filling:  47.97%
                  NGWF diagonal matrix filling:   0.16%
                             KS matrix filling: 100.00% 
                           KSKS matrix filling: 100.00% 
================================================================================

Sparse matrix initialisation ... done
NGWF initialisation ...... done
============ Calculation of NGWF S^-1 using Hotelling algorithm ================ 
         Iteration  |  Frobenius norm and Maximum abs value    (of I-S*S_n^-1)   
               1       0.49259101E+02     0.97862024E+00
               2       0.48168576E+02     0.95899487E+00
               3       0.46494111E+02     0.92404221E+00
               4       0.44265679E+02     0.86661059E+00
               5       0.41556509E+02     0.78089375E+00
               6       0.38339659E+02     0.69359851E+00
               7       0.34862640E+02     0.64344655E+00
               8       0.31539722E+02     0.60240782E+00
               9       0.28185683E+02     0.56287486E+00
              10       0.24106200E+02     0.50507994E+00
              11       0.18750677E+02     0.41048216E+00
              12       0.12202500E+02     0.27565826E+00
              13       0.58064185E+01     0.13052641E+00
              14       0.15592901E+01     0.32790979E-01
              15       0.13396417E+00     0.24985161E-02
              16       0.12108624E-02     0.18253413E-04
              17       0.14336125E-06     0.13969819E-08
              18       0.89858571E-13     0.56621374E-14
================================================================================
Calculating core density ...
================================= Core Density =================================
               Core den box size:   21 x  21 x  21
================================================================================
 ... done
Up spin density kernel initialisation ...... done

Writing density kernel to file "3.1661816_GO_manual_4x64graphite.dkn" ... done

>>> Optimising kernel for current NGWFs:

--------------------------- Ensemble-DFT optimisation --------------------------
Running ScaLAPACK on   40 processor(s).

--------------------------------------------------------------------------------
  Iter                              Commutator    Free_energy(A=E-TS)     DeltaA
#    0                          0.000054446846   -3619.74587663518332  -3.62E+03

Step                       =       0.381966011250
Energy                     =   -3619.745839590026
Entropy (-TS)              =      -0.000037045134
Free energy (A=E-TS)       =   -3619.745876635183
Est. 0K Energy 0.5*(E+A)   =   -3619.745858112605
Residual Non-orthogonality =       0.000000000000
Residual N_electrons       =      -0.000000000024

Spin          Integrated_Ne            Fermi_level     Delta_Fermi_level
   1      2560.000000000098         0.245885054614              2.46E-01

                           Spin 1          
     Orb      H-eigenvalues     Occupancies
       1 |    -0.4816351654    1.0000000000 | 
                          ------
    1276 |     0.2128335081    0.9999706695 | 
    1277 |     0.2134324534    0.9999645631 | 
    1278 |     0.2134506617    0.9999643588 | 
    1279 |     0.2137593883    0.9999607093 | 
    1280 |     0.2143618333    0.9999524769 | 
                 - Gap at zero temperature -
    1281 |     0.2797057668    0.0000230059 | 
    1282 |     0.2797159607    0.0000229320 | 
    1283 |     0.2798723962    0.0000218267 | 
    1284 |     0.2799264680    0.0000214572 | 
    1285 |     0.2799365978    0.0000213887 | 
                          ------
    2560 |     1.0874993854    0.0000000000 | 

                       |  Abs_value |  Threshold | Converged
     Delta_Free_energy |   3.62E+03 |   1.00E-06 |        No
     Delta_Energy      |   3.62E+03 |   1.00E-04 |        No
     Delta_Entropy     |   3.70E-05 |   1.00E-04 |       Yes
     Commutator        |   5.44E-05 |   1.00E-05 |        No
     Delta_Fermi_level |   2.46E-01 |   1.00E-03 |        No

  Line search of the free energy minimum:
  Step_type        Step             Free_energy   Predicted_free_energy
.   Initial    0.000000    -3619.74587663518332
.    Trial1    0.381966    -3619.74913803959362
.    Trial2    0.618034    -3619.74869926940301
. Quadratic    0.444758    -3619.74920415434508    -3619.74920436962111

--------------------------------------------------------------------------------
  Iter                              Commutator    Free_energy(A=E-TS)     DeltaA
#    1                          0.000025370505   -3619.74920415434508  -3.33E-03

Step                       =       0.444758048681
Energy                     =   -3619.749166843672
Entropy (-TS)              =      -0.000037310572
Free energy (A=E-TS)       =   -3619.749204154345
Est. 0K Energy 0.5*(E+A)   =   -3619.749185499008
Residual Non-orthogonality =       0.000000000000
Residual N_electrons       =      -0.000000000100

Spin          Integrated_Ne            Fermi_level     Delta_Fermi_level
   1      2560.000000000406         0.247193475825              1.31E-03

                           Spin 1          
     Orb      H-eigenvalues     Occupancies
       1 |    -0.4801011331    1.0000000000 | 
                          ------
    1276 |     0.2142382201    0.9999697640 | 
    1277 |     0.2147143566    0.9999648586 | 
    1278 |     0.2147278834    0.9999647082 | 
    1279 |     0.2151958082    0.9999590888 | 
    1280 |     0.2156713526    0.9999524604 | 
                 - Gap at zero temperature -
    1281 |     0.2809849267    0.0000232195 | 
    1282 |     0.2810096907    0.0000230386 | 
    1283 |     0.2811824134    0.0000218157 | 
    1284 |     0.2811926029    0.0000217456 | 
    1285 |     0.2812263484    0.0000215152 | 
                          ------
    2560 |     1.0905991962    0.0000000000 | 

                       |  Abs_value |  Threshold | Converged
     Delta_Free_energy |   3.33E-03 |   1.00E-06 |        No
     Delta_Energy      |   3.33E-03 |   1.00E-04 |        No
     Delta_Entropy     |   2.65E-07 |   1.00E-04 |       Yes
     Commutator        |   2.54E-05 |   1.00E-05 |        No
     Delta_Fermi_level |   1.31E-03 |   1.00E-03 |        No

  Line search of the free energy minimum:
  Step_type        Step             Free_energy   Predicted_free_energy
.   Initial    0.000000    -3619.74920415434508
.    Trial1    0.444758    -3619.74970919287853
.    Trial2    0.656842    -3619.74916395791115
. Quadratic    0.322998    -3619.74979297707659    -3619.74979284906249

--------------------------------------------------------------------------------
  Iter                              Commutator    Free_energy(A=E-TS)     DeltaA
#    2                          0.000017088401   -3619.74979297707659  -5.89E-04

Step                       =       0.322998208577
Energy                     =   -3619.749755762193
Entropy (-TS)              =      -0.000037215346
Free energy (A=E-TS)       =   -3619.749792977077
Est. 0K Energy 0.5*(E+A)   =   -3619.749774369635
Residual Non-orthogonality =       0.000000000000
Residual N_electrons       =       0.000000000462

Spin          Integrated_Ne            Fermi_level     Delta_Fermi_level
   1      2559.999999998135         0.247637360832              4.44E-04

                           Spin 1          
     Orb      H-eigenvalues     Occupancies
       1 |    -0.4795003395    1.0000000000 | 
                          ------
    1276 |     0.2146593914    0.9999699801 | 
    1277 |     0.2151632470    0.9999648030 | 
    1278 |     0.2151829044    0.9999645839 | 
    1279 |     0.2156043586    0.9999595427 | 
    1280 |     0.2161135336    0.9999524860 | 
                 - Gap at zero temperature -
    1281 |     0.2814382643    0.0000231503 | 
    1282 |     0.2814690949    0.0000229260 | 
    1283 |     0.2816371790    0.0000217409 | 
    1284 |     0.2816602861    0.0000215828 | 
    1285 |     0.2816980920    0.0000213267 | 
                          ------
    2560 |     1.0918118044    0.0000000000 | 

                       |  Abs_value |  Threshold | Converged
     Delta_Free_energy |   5.89E-04 |   1.00E-06 |        No
     Delta_Energy      |   5.89E-04 |   1.00E-04 |        No
     Delta_Entropy     |   9.52E-08 |   1.00E-04 |       Yes
     Commutator        |   1.71E-05 |   1.00E-05 |        No
     Delta_Fermi_level |   4.44E-04 |   1.00E-03 |       Yes

  Line search of the free energy minimum:
  Step_type        Step             Free_energy   Predicted_free_energy
.   Initial    0.000000    -3619.74979297707659
.    Trial1    0.322998    -3619.75000651912433
.    Trial2    0.581590    -3619.74961299390907
. Quadratic    0.249570    -3619.75002676789973    -3619.75002675636142

--------------------------------------------------------------------------------
  Iter                              Commutator    Free_energy(A=E-TS)     DeltaA
#    3                          0.000011667454   -3619.75002676789973  -2.34E-04

Step                       =       0.249569733176
Energy                     =   -3619.749989580378
Entropy (-TS)              =      -0.000037187702
Free energy (A=E-TS)       =   -3619.750026767900
Est. 0K Energy 0.5*(E+A)   =   -3619.750008174139
Residual Non-orthogonality =       0.000000000000
Residual N_electrons       =       0.000000000181

Spin          Integrated_Ne            Fermi_level     Delta_Fermi_level
   1      2559.999999999270         0.247874082422              2.37E-04

                           Spin 1          
     Orb      H-eigenvalues     Occupancies
       1 |    -0.4791830966    1.0000000000 | 
                          ------
    1276 |     0.2148940751    0.9999699994 | 
    1277 |     0.2153980911    0.9999648239 | 
    1278 |     0.2154201652    0.9999645778 | 
    1279 |     0.2158360790    0.9999596065 | 
    1280 |     0.2163478305    0.9999525223 | 
                 - Gap at zero temperature -
    1281 |     0.2816763079    0.0000231406 | 
    1282 |     0.2817094821    0.0000228995 | 
    1283 |     0.2818756508    0.0000217289 | 
    1284 |     0.2818992904    0.0000215673 | 
    1285 |     0.2819382243    0.0000213038 | 
                          ------
    2560 |     1.0924511296    0.0000000000 | 

                       |  Abs_value |  Threshold | Converged
     Delta_Free_energy |   2.34E-04 |   1.00E-06 |        No
     Delta_Energy      |   2.34E-04 |   1.00E-04 |        No
     Delta_Entropy     |   2.76E-08 |   1.00E-04 |       Yes
     Commutator        |   1.17E-05 |   1.00E-05 |        No
     Delta_Fermi_level |   2.37E-04 |   1.00E-03 |       Yes

  Line search of the free energy minimum:
  Step_type        Step             Free_energy   Predicted_free_energy
.   Initial    0.000000    -3619.75002676789973
.    Trial1    0.249570    -3619.75013573645856
.    Trial2    0.536209    -3619.75005782509879
. Quadratic    0.290024    -3619.75013789870354    -3619.75013789864033

--------------------------------------------------------------------------------
  Iter                              Commutator    Free_energy(A=E-TS)     DeltaA
#    4                          0.000008777317   -3619.75013789870354  -1.11E-04

Step                       =       0.290023849869
Energy                     =   -3619.750100729913
Entropy (-TS)              =      -0.000037168956
Free energy (A=E-TS)       =   -3619.750137898704
[...]
 C   275 -- C   555       -0.10      5.37000
 C   274 -- C   554       -0.10      5.37000
 C   273 -- C   553       -0.10      5.37000
 C   272 -- C   552       -0.10      5.37000
 C   271 -- C   551       -0.10      5.37000
 C   270 -- C   550       -0.10      5.37000
 C   269 -- C   549       -0.10      5.37000
 C   268 -- C   548       -0.10      5.37000
 C   267 -- C   547       -0.10      5.37000
 C   266 -- C   546       -0.10      5.37000
 C   130 -- C   465       -0.10      5.37000
 C   129 -- C   464       -0.10      5.37000
 C   128 -- C   463       -0.10      5.37000
 C   127 -- C   462       -0.10      5.37000
 C   126 -- C   461       -0.10      5.37000
 C   240 -- C   525       -0.10      5.37000
 C   239 -- C   524       -0.10      5.37000
 C   238 -- C   523       -0.10      5.37000
 C   237 -- C   522       -0.10      5.37000
 C   236 -- C   521       -0.10      5.37000
 C    23 -- C   478       -0.10      5.37202
 C    49 -- C   469       -0.10      5.37202
 C    48 -- C   468       -0.10      5.37202
 C    47 -- C   467       -0.10      5.37202
 C    22 -- C   477       -0.10      5.37202
 C    46 -- C   466       -0.10      5.37202
 C    21 -- C   476       -0.10      5.37202
 C    25 -- C   480       -0.10      5.37202
 C    24 -- C   479       -0.10      5.37202
 C    50 -- C   470       -0.10      5.37202
 C    24 -- C   449       -0.10      5.37202
 C     6 -- C   416       -0.10      5.37202
 C    23 -- C   448       -0.10      5.37202
 C    22 -- C   447       -0.10      5.37202
 C    10 -- C   470       -0.10      5.37202
 C     5 -- C   450       -0.10      5.37202
 C    21 -- C   446       -0.10      5.37202
 C    10 -- C   420       -0.10      5.37202
 C     9 -- C   469       -0.10      5.37202
 C     9 -- C   419       -0.10      5.37202
 C     8 -- C   468       -0.10      5.37202
 C     4 -- C   449       -0.10      5.37202
 C     8 -- C   418       -0.10      5.37202
 C   285 -- C   580       -0.10      5.37202
 C   284 -- C   579       -0.10      5.37202
 C   283 -- C   578       -0.10      5.37202
 C   282 -- C   577       -0.10      5.37202
 C   281 -- C   576       -0.10      5.37202
 C     2 -- C   447       -0.10      5.37202
 C     7 -- C   467       -0.10      5.37202
 C   260 -- C   605       -0.10      5.37202
 C   259 -- C   604       -0.10      5.37202
 C   258 -- C   603       -0.10      5.37202
 C   257 -- C   602       -0.10      5.37202
 C   256 -- C   601       -0.10      5.37202
 C     7 -- C   417       -0.10      5.37202
 C     1 -- C   446       -0.10      5.37202
 C     6 -- C   466       -0.10      5.37202
 C    25 -- C   450       -0.10      5.37202
 C     3 -- C   448       -0.10      5.37202
 C   219 -- C   569       -0.10      5.37202
 C   218 -- C   568       -0.10      5.37202
 C   217 -- C   567       -0.10      5.37202
 C   216 -- C   566       -0.10      5.37202
 C   250 -- C   540       -0.10      5.37202
 C   249 -- C   539       -0.10      5.37202
 C   248 -- C   538       -0.10      5.37202
 C   247 -- C   537       -0.10      5.37202
 C   246 -- C   536       -0.10      5.37202
 C   220 -- C   570       -0.10      5.37202
 C   205 -- C   550       -0.10      5.37202
 C   204 -- C   549       -0.10      5.37202
 C   203 -- C   548       -0.10      5.37202
 C   202 -- C   547       -0.10      5.37202
 C   201 -- C   546       -0.10      5.37202
 C    95 -- C   365       -0.10      5.37202
 C    94 -- C   364       -0.10      5.37202
 C    93 -- C   363       -0.10      5.37202
 C    92 -- C   362       -0.10      5.37202
 C    91 -- C   361       -0.10      5.37202
 C    65 -- C   395       -0.10      5.37202
 C    64 -- C   394       -0.10      5.37202
 C    63 -- C   393       -0.10      5.37202
 C    30 -- C   355       -0.10      5.37202
 C    62 -- C   392       -0.10      5.37202
 C    61 -- C   391       -0.10      5.37202
 C    29 -- C   354       -0.10      5.37202
 C   260 -- C   550       -0.10      5.37202
 C   259 -- C   549       -0.10      5.37202
 C    28 -- C   353       -0.10      5.37202
 C   258 -- C   548       -0.10      5.37202
 C   257 -- C   547       -0.10      5.37202
 C   256 -- C   546       -0.10      5.37202
 C    27 -- C   352       -0.10      5.37202
 C    26 -- C   351       -0.10      5.37202
 C    55 -- C   335       -0.10      5.37202
 C    54 -- C   334       -0.10      5.37202
 C    53 -- C   333       -0.10      5.37202
 C   230 -- C   580       -0.10      5.37202
 C   230 -- C   525       -0.10      5.37202
 C   229 -- C   579       -0.10      5.37202
 C   229 -- C   524       -0.10      5.37202
 C   228 -- C   578       -0.10      5.37202
 C    52 -- C   332       -0.10      5.37202
 C   228 -- C   523       -0.10      5.37202
 C   227 -- C   577       -0.10      5.37202
 C   227 -- C   522       -0.10      5.37202
 C   226 -- C   576       -0.10      5.37202
 C   226 -- C   521       -0.10      5.37202
 C    51 -- C   331       -0.10      5.37202
 C   220 -- C   515       -0.10      5.37202
 C   219 -- C   514       -0.10      5.37202
 C   218 -- C   513       -0.10      5.37202
 C   217 -- C   512       -0.10      5.37202
 C   216 -- C   511       -0.10      5.37202
 C   195 -- C   540       -0.10      5.37202
 C   195 -- C   500       -0.10      5.37202
 C   194 -- C   539       -0.10      5.37202
 C   194 -- C   499       -0.10      5.37202
 C   193 -- C   538       -0.10      5.37202
 C   193 -- C   498       -0.10      5.37202
 C   192 -- C   537       -0.10      5.37202
 C   192 -- C   497       -0.10      5.37202
 C   191 -- C   536       -0.10      5.37202
 C   191 -- C   496       -0.10      5.37202
 C   180 -- C   515       -0.10      5.37202
 C   179 -- C   514       -0.10      5.37202
 C   178 -- C   513       -0.10      5.37202
 C   177 -- C   512       -0.10      5.37202
 C   176 -- C   511       -0.10      5.37202
 C   150 -- C   440       -0.10      5.37202
 C   149 -- C   439       -0.10      5.37202
 C   148 -- C   438       -0.10      5.37202
 C   147 -- C   437       -0.10      5.37202
 C   146 -- C   436       -0.10      5.37202
 C   135 -- C   460       -0.10      5.37202
 C   134 -- C   459       -0.10      5.37202
 C   133 -- C   458       -0.10      5.37202
 C   132 -- C   457       -0.10      5.37202
 C   131 -- C   456       -0.10      5.37202
 C    11 -- C   331       -0.10      5.37202
 C    95 -- C   425       -0.10      5.37202
 C    94 -- C   424       -0.10      5.37202
 C    93 -- C   423       -0.10      5.37202
 C    92 -- C   422       -0.10      5.37202
 C    91 -- C   421       -0.10      5.37202
 C    85 -- C   355       -0.10      5.37202
 C    40 -- C   365       -0.10      5.37202
 C    84 -- C   354       -0.10      5.37202
 C    83 -- C   353       -0.10      5.37202
 C    82 -- C   352       -0.10      5.37202
 C    39 -- C   364       -0.10      5.37202
 C    81 -- C   351       -0.10      5.37202
 C    38 -- C   363       -0.10      5.37202
 C    37 -- C   362       -0.10      5.37202
 C    36 -- C   361       -0.10      5.37202
 C    15 -- C   335       -0.10      5.37202
 C    65 -- C   345       -0.10      5.37202
 C    64 -- C   344       -0.10      5.37202
 C    63 -- C   343       -0.10      5.37202
 C    30 -- C   325       -0.10      5.37202
 C    62 -- C   342       -0.10      5.37202
 C    14 -- C   334       -0.10      5.37202
 C    61 -- C   341       -0.10      5.37202
 C    29 -- C   324       -0.10      5.37202
 C    28 -- C   323       -0.10      5.37202
 C    13 -- C   333       -0.10      5.37202
 C    27 -- C   322       -0.10      5.37202
 C   120 -- C   395       -0.10      5.37202
 C    55 -- C   385       -0.10      5.37202
 C   119 -- C   394       -0.10      5.37202
 C   118 -- C   393       -0.10      5.37202
 C   117 -- C   392       -0.10      5.37202
 C    54 -- C   384       -0.10      5.37202
 C    26 -- C   321       -0.10      5.37202
 C   116 -- C   391       -0.10      5.37202
 C    53 -- C   383       -0.10      5.37202
 C    12 -- C   332       -0.10      5.37202
 C    52 -- C   382       -0.10      5.37202
 C    51 -- C   381       -0.10      5.37202
 C   106 -- C   436       -0.10      5.37202
 C   106 -- C   376       -0.10      5.37202
 C    80 -- C   410       -0.10      5.37202
 C    79 -- C   409       -0.10      5.37202
 C    78 -- C   408       -0.10      5.37202
 C    77 -- C   407       -0.10      5.37202
 C    76 -- C   406       -0.10      5.37202
 C   135 -- C   410       -0.10      5.37202
 C   134 -- C   409       -0.10      5.37202
 C   133 -- C   408       -0.10      5.37202
 C   132 -- C   407       -0.10      5.37202
 C   131 -- C   406       -0.10      5.37202
 C   110 -- C   440       -0.10      5.37202
 C   110 -- C   380       -0.10      5.37202
 C   109 -- C   439       -0.10      5.37202
 C   109 -- C   379       -0.10      5.37202
 C   108 -- C   438       -0.10      5.37202
 C   108 -- C   378       -0.10      5.37202
 C   107 -- C   437       -0.10      5.37202
 C   107 -- C   377       -0.10      5.37202
 C   215 -- C   635       -0.10      5.38000
 C   214 -- C   634       -0.10      5.38000
 C   213 -- C   633       -0.10      5.38000
 C   212 -- C   632       -0.10      5.38000
 C   211 -- C   631       -0.10      5.38000
 C   190 -- C   620       -0.10      5.38000
 C   189 -- C   619       -0.10      5.38000
 C   188 -- C   618       -0.10      5.38000
 C   187 -- C   617       -0.10      5.38000
 C   186 -- C   616       -0.10      5.38000
 C   175 -- C   595       -0.10      5.38000
 C   174 -- C   594       -0.10      5.38000
 C   173 -- C   593       -0.10      5.38000
 C   172 -- C   592       -0.10      5.38000
 C   171 -- C   591       -0.10      5.38000
 C   245 -- C   640       -0.10      5.38000
 C   244 -- C   639       -0.10      5.38000
 C   243 -- C   638       -0.10      5.38000
 C   242 -- C   637       -0.10      5.38000
 C   241 -- C   636       -0.10      5.38000
==================================================


=================== Orbital energy and occupancy information ===================

      Total number of orbitals:    2560
        Occupancy sum (kernel):    1280.000000000
   Occupancy sum (eigenvalues):    1280.000000000
                 HOMO-LUMO gap:       0.000006739 Eh
                 Mid-gap level:       0.315468402 Eh

                        Orbital | Energy (Eh) | Occupancy
                            1    -0.441531824   1.0000000
                        .......   ...........   .........
                         1272     0.248101723   0.9999866
                         1273     0.248524047   0.9999847
                         1274     0.248573872   0.9999844
                         1275     0.252372278   0.9999483
                         1276     0.252376709   0.9999482
                         1277     0.252742928   0.9999418
                         1278     0.252811653   0.9999406
                         1279     0.252816229   0.9999405
                         1280     0.253162599   0.9999336
                         1281     0.315465032   0.0000429
                        ....... -- gap at 0K -- .........
                         1282     0.315471772   0.0000428
                         1283     0.315711410   0.0000397
                         1284     0.315718151   0.0000396
                         1285     0.316743904   0.0000288
                         1286     0.316754411   0.0000287
                         1287     0.317009010   0.0000265
                         1288     0.317019387   0.0000264
                         1289     0.317549510   0.0000224
                         1290     0.317764158   0.0000206
                         1291     0.317809362   0.0000203
                        .......   ...........   .........
                         2560     1.183734192   0.0000000

================================================================================

===================== Writing canonical molecular orbitals =====================
| Orbital  Energy (eV)  Norm     |
| HOMO      8.58424033  1.000000 | Writing "3.1661816_GO_manual_4x64graphite_HOMO.cube" ... done
Writing "3.1661816_GO_manual_4x64graphite_HOMO.dx" ... done
| LUMO      8.58442371  1.000000 | Writing "3.1661816_GO_manual_4x64graphite_LUMO.cube" ... done
Writing "3.1661816_GO_manual_4x64graphite_LUMO.dx" ... done
================================================================================
 
===================== Density of States (DOS) calculation ======================
Writing "3.1661816_GO_manual_4x64graphite_DOS.txt" ...  done
================================================================================
 
Writing bands to file "3.1661816_GO_manual_4x64graphite.val_bands" ... done
 
================ Projected Density of States (pDOS) calculation ================
 
Constructing AM resolved functions  ...... done
Writing NGWF plot files in formats: CUBE DX ...  done
 
Performing overlap integrals ...  done
 
Computing pDOS weights ...  done
 
All bands spilling parameter =   3.92 %
Occupancy-weighted spilling parameter =   0.79 %
 
 => Outputting data for OptaDOS <=
 
Writing pDOS weights to file "3.1661816_GO_manual_4x64graphite.val_pdos_bin" ... done
 
Writing band gradients to file "3.1661816_GO_manual_4x64graphite.val_dome_bin" ... done
 
Writing Castep output cell file to "3.1661816_GO_manual_4x64graphite-out.cell" ... done
 
 => Computing Gaussian smeared pDOS <= 
Writing "3.1661816_GO_manual_4x64graphite_PDOS.txt" ...  done
 
 => Computing Occupancy-weighted Gaussian smeared pDOS <= 
Writing "3.1661816_GO_manual_4x64graphite_occ_PDOS.txt" ...  done
  => Band centres: 
 S band centre of group 1:  -15.449620 eV
 P band centre of group 1:   -8.396241 eV
  Band centres done. <=
  => Integrated number of electrons in each AM band: 
 S num electrons of group 1:  571.755825
 P num electrons of group 1: 1967.950803
  Integrated number of electrons done. <=
================================================================================

------------------------------ TIMING INFORMATION ------------------------------
AVERAGE TIME:    4498.020s on     40 node(s)                                    
TOTAL TIME:      4498.020s on     40 node(s)                                    
================= AVERAGE TIMINGS FROM ALL NODES (CUMULATIVE) ==================
|| TAG                                    #calls    cpu time   %total  Gflops ||
|| work_imbalance                       :     1        0.00s   0.000%  ------ ||
|| paw_tcore_hartree_on_grid            :     1        0.00s   0.000%  ------ ||
|| paw_tcore_density                    :     1        0.01s   0.000%  ------ ||
|| paw_sphere_density_on_grid           :     1        0.01s   0.000%  ------ ||
|| sparse_set_to_garbage                :   183        0.03s   0.001%  ------ ||
|| paw_dij_hartree                      :   398        0.05s   0.001%  ------ ||
|| pseudo_make_structure_factor         :     1        0.05s   0.001%  ------ ||
|| basis_extract_function_from_box      :  2048        0.09s   0.002%  ------ ||
|| paw_species_calc_proj_prec_mat       :     1        0.12s   0.003%  ------ ||
|| paw_dataset_init                     :     1        0.15s   0.003%  ------ ||
|| density_init_guess_real              :     1        0.20s   0.004%  ------ ||
|| ngwfs_initialise_from_radial         :     2        0.66s   0.015%  ------ ||
|| restart_kernel_write                 :    17        0.95s   0.021%  ------ ||
|| sparse_init                          :     1        0.98s   0.022%  ------ ||
|| dense_normal_eigensolve              :     1        1.00s   0.022%  ------ ||
|| hartree_on_grid                      :   298        1.60s   0.036%  ------ ||
|| ewald_calculate_energy               :     1        2.29s   0.051%  ------ ||
|| projectors_init_fftbox_recip         :   161        3.15s   0.070%  ------ ||
|| fourier_apply_box_pair               :  3040        5.03s   0.112% 560.337 ||
|| basis_copy_function_to_box           : 28224        6.12s   0.136%  ------ ||
|| augmentation_screen_dij              :   305        6.58s   0.146%  ------ ||
|| sw_init                              :     1        6.73s   0.150%  ------ ||
|| sparse_embed_hotelling_invert_embed  :    31        9.38s   0.208%  ------ ||
|| ngwf_gradient_coeffs                 :    16       13.18s   0.293%  ------ ||
|| cell_grid_extract_box_real           : 11996       16.70s   0.371%  ------ ||
|| sparse_trace                         :  3614       20.98s   0.466%  ------ ||
|| fourier_apply_cell_backward          :  9209       21.56s   0.479%  47.151 ||
|| fourier_apply_cell_forward           :  8614       23.13s   0.514%  41.111 ||
|| cell_grid_deposit_box_real           : 38320       24.93s   0.554%  ------ ||
|| paw_dij_xc                           :   398       31.68s   0.704%  ------ ||
|| aug_nonlocal_mat                     :   382       45.51s   1.012%  ------ ||
|| density_fftbox_deposit_to_cell       : 19072       50.18s   1.116%  ------ ||
|| eigenstates_pdos                     :     1       53.48s   1.189%  ------ ||
|| eigenstates_calculate                :     1       57.55s   1.280%  ------ ||
|| augmentation_density_on_grid         :   298       58.05s   1.291%  ------ ||
|| function_ops_brappd_ketppd           :    64       67.73s   1.506%  ------ ||
|| hamiltonian_energy_components        :     4       67.84s   1.508%  ------ ||
|| projectors_func_ovlp_box             :    32       78.99s   1.756%  ------ ||
|| xc_energy_potential                  :   297       93.60s   2.081%  ------ ||
|| nlxc_vdw_energy                      :   594       96.13s   2.137%  ------ ||
|| properties_calculate                 :     1      102.96s   2.289%  ------ ||
|| restart_ngwfs_tightbox_output        :    15      114.79s   2.552%  ------ ||
|| integrals_kinetic                    :    31      118.25s   2.629%  ------ ||
|| dense_eigensolve                     :   262      123.37s   2.743%  ------ ||
|| potential_apply_to_ngwf_batch        :   380      149.34s   3.320%  ------ ||
|| sparse_product                       :  3617      162.48s   3.612%  ------ ||
|| basis_dot_function_with_box          : 9.496M     261.00s   5.803%  ------ ||
|| fourier_apply_box                    : 88576      276.05s   6.137% 979.124 ||
|| edft_diag_ngwf_ham                   :   261      283.56s   6.304%  ------ ||
|| projectors_gradient_batch            :    64      302.56s   6.727%  ------ ||
|| integrals_locpot_mat_els_batch       :   380      365.49s   8.126%  ------ ||
|| density_fftbox_interpolate_multiply  : 19072      370.05s   8.227%  ------ ||
|| projectors_grad_precond_batch        :    64      445.00s   9.893%  ------ ||
|| density_batch_interp_deposit         :  1192      466.56s  10.373%  ------ ||
|| integrals_locpot_dbl_grid            :    95      516.80s  11.490%  ------ ||
|| edft_apply_smearing_operator         :   261      560.55s  12.462%  ------ ||
|| basis_add_function_to_box            : 26.60M     701.70s  15.600%  ------ ||
|| ngwf_gradient_build_batch            :    64      796.11s  17.699%  ------ ||
|| density_batch_row_sums               :  1192     1035.26s  23.016%  ------ ||
|| ngwf_gradient_batch                  :    64     1055.39s  23.463%  ------ ||
|| ngwf_gradient_lnv                    :    16     1088.95s  24.210%  ------ ||
|| density_on_dbl_grid                  :   298     1518.04s  33.749%  ------ ||
|| hamiltonian_lhxc_calculate           :   292     1647.52s  36.628%  ------ ||
|| edft_calculate                       :    16     2713.12s  60.318%  ------ ||
|| ngwf_cg_optimise                     :     1     4374.18s  97.247%  ------ ||
|| total_time                           :     1     4498.02s 100.000%  ------ ||
================================================================================
Overhead of generating timer report: 
- 0 ms averaging over threads,
- 5 ms ensuring consistency across MPI ranks,
- 0 ms printing in order.

Job completed: 21-02-2020 16:38 (-0000)

