 +---------------------------------------------------------------+
 |                                                               |
 |        ####### #     # ####### ####### ####### ######         |
 |        #     # ##    # #          #    #       #     #        |
 |        #     # # #   # #          #    #       #     #        |
 |        #     # #  #  # #####      #    #####   ######         |
 |        #     # #   # # #          #    #       #              |
 |        #     # #    ## #          #    #       #              |
 |        ####### #     # #######    #    ####### #              |
 |                                                               |
 |        Linear-Scaling Ab Initio Total Energy Program          |
 |                                                               |
 |          Release for academic collaborators of ODG            |
 |                                             Version 5.3.2.12  |
 |                                                               |
 +---------------------------------------------------------------+
 |                                                               |
 |  Authors:                                                     |
 |  Jacek Dziedzic, Peter D. Haynes, Nicholas D. M. Hine,        |
 |  Arash. A. Mostofi, Mike C. Payne and Chris-Kriton Skylaris   |
 |                                                               |
 |  Contributors:                                                |
 |  J. Aarons, L. Andrinopoulos, P. W. Avraam, R. A. Bell,       |
 |  A. Bhandari, G. A. Bramley, R. J. Charlton, S. J. Clark,     |
 |  R. J. Clements, G. C. Constantinescu, F. Corsetti,           |
 |  N. Corsini, O. Dieguez, S. M. M. Dubois, K. K. B. Duff,      |
 |  J. M. Escartin, A. Greco, H. Helal, Q. O. Hill, L. P. Lee,   |
 |  J.-H. Li, E. B. Linscott, G. Moynihan, D. D. O`Regan,        |
 |  O. K. Okan, M. J. S. Phipps, C. J. Pickard,                  |
 |  J. C. A. Prentice, M. I. J. Probert, L. E. Ratcliff,         |
 |  M. Robinson, A. Ruiz Serrano, J. S. Spencer, E. W. Tait,     |
 |  G. Teobaldi, D. Turban, V. Vitale, K. A. Wilkinson,          |
 |  C. Weber, J. C. Womack, N. Yeung and T. J. Zuehlsdorff       |
 |                                                               |
 |                                   Copyright (c) 2004-2020     |
 |                                                               |
 |  Please cite:                                                 |
 |  "Introducing ONETEP: Linear-scaling density functional       |
 |   simulations on parallel computers".                         |
 |   C.-K. Skylaris, P. D. Haynes, A. A. Mostofi, M. C. Payne.   |
 |   J. Chem. Phys. 122 084119 (2005).                           |
 |                                                               |
 |          in all publications arising from your use of ONETEP. |
 |                                                               |
 +---------------------------------------------------------------+
 |                                                               |
 |   ONETEP is based on developments described in the following  |
 |   publications:                                               |
 |                                                               |
 |  "Nonorthogonal generalized Wannier function pseudopotential  |
 |   plane-wave method".                                         |
 |   C.-K. Skylaris, A. A. Mostofi, P. D. Haynes, O. Dieguez,    |
 |   M. C. Payne.                                                |
 |   Phys. Rev. B 66 035119 (2002).                              |
 |                                                               |
 |  "Preconditioned iterative minimization for linear-scaling    |
 |   electronic structure calculations".                         |
 |   A. A. Mostofi, P. D. Haynes, C.-K. Skylaris, M. C. Payne.   |
 |   J. Chem. Phys. 119(17), pp.8842-8848 (2003).                |
 |                                                               |
 |  "Total-energy calculations on a real space grid with         |
 |   localized functions and a plane-wave basis".                |
 |   A. A. Mostofi, C.-K. Skylaris, P. D. Haynes, M. C. Payne.   |
 |   Comput. Phys. Commun. 147, pp.788-802 (2002).               |
 |                                                               |
 |  "Accurate kinetic energy evaluation in electronic structure  |
 |   calculations with localized functions on real space grids"  |
 |   C.-K. Skylaris, A. A. Mostofi, P. D. Haynes, C. J. Pickard, |
 |   M. C. Payne.                                                |
 |   Comput. Phys. Commun. 140, pp.315-322 (2001).               |
 |                                                               |
 |  "Accurate ionic forces and geometry optimization in linear-  |
 |   scaling density-functional theory with local orbitals"      |
 |   N. D. M. Hine, M. Robinson, P. D. Haynes, C.-K. Skylaris,   |
 |   M. C. Payne, and A. A. Mostofi.                             |
 |   Phys. Rev. B 83 195102 (2011).                              |
 |                                                               |
 +---------------------------------------------------------------+

Job started: 21-02-2020 18:04 (-0000)
 
Reading parameters from file "3.488156_GO_manual_4x64graphite.dat" ...

WARNING: "cutoff_energy" not specified, but "psinc_spacing" specified.
         Using the latter to set the KE cutoff energy to  732.32021eV,
         thus *overriding* the default.

... done

If your calculation crashes here, before "Checking processes and threads..."
is displayed, then your stack size is insufficient.
If so, use "ulimit -s unlimited" at runtime.
You can disable this check with "check_stack_size F".

Checking processes and threads...
   Determining the default number of threads...
      No default threads set at compilation time: defaulting to 1.
      OpenMP library call suggests 4 threads.
      Hybrid MPI-OpenMP compilation detected.
      Number of MPI processes > 1.
      OMP_NUM_THREADS environment variable present and
      its value matches the one obtained from the OpenMP library call.
      Using this value as default.
      Default threads: 4
      Default applies to threads_max and threads_num_fftboxes.
      Settings in the input file override this default.
   ... done

   Running with 40 MPI processes.
   There are 10 MPI processes running on the same node as the root process.
   Each MPI process is using: 
               1 threads for simulation cell FFTs.
               1 threads for parallel FFT box operations.
               4 threads for loops over batched FFT box operations.
               4 threads in other parallel regions.
... done

Basic input checks...
Resetting ngwf_cg_rotate to TRUE for EDFT calculations
... done

Reading geometry and species blocks from file "3.488156_GO_manual_4x64graphite.dat" ...
    
  PSINC grid spacing along a1 set to   0.511215680000a0 from input file.
  PSINC grid spacing along a2 set to   0.531284090000a0 from input file.
  PSINC grid spacing along a3 set to   0.507051770000a0 from input file.
  Number of PPD points along a3 set to 1.  This is 
  the default value, it may have been provided also in the input file.
... done
 Writing xyz coordinates to file "3.488156_GO_manual_4x64graphite.xyz" ... done


--------------------------------------------------------------------------------
---------------------------------- INPUT FILE ----------------------------------
--------------------------------------------------------------------------------

task : singlepoint                                                              
do_properties : true                                                            
dx_format T                                                                     
edft T                                                                          
output_detail VERBOSE                                                           
write_xyz T                                                                     
xc_functional AVV10S                                                            
PSINC_SPACING 0.51121568 0.53128409 0.50705177                                  
paw T                                                                           
pdos_max_l = 2                                                                  
dos_smear  0.1 eV                                                               
popn_calculate T                                                                
PDOS_PSEUDOATOMIC T                                                             
PDOS_REDUCE_SWS F                                                               
PDOS_CONSTRUCT_BASIS F                                                          
PDOS_LOWDIN T                                                                   
PDOS_ORTH_ATOM_BLOCKS F                                                         
PDOS_LCAO_OPTIMIZE F                                                            
pdos_optados_output T                                                           
homo_plot 0                                                                     
lumo_plot 0                                                                     
homo_dens_plot -1                                                               
lumo_dens_plot -1                                                               
%BLOCK SPECIES                                                                  
C C 6 4 9.0                                                                     
%ENDBLOCK SPECIES                                                               
%BLOCK SPECIES_POT                                                              
C "~/pp/paw/c_pbe_abinit.paw"                                                   
%ENDBLOCK SPECIES_POT                                                           
%BLOCK SPECIES_ATOMIC_SET                                                       
C "SOLVE conf=2s2 2p2"                                                          
%ENDBLOCK SPECIES_ATOMIC_SET                                                    
%BLOCK LATTICE_CART                                                             
32.21  0.00  0.00                                                               
0.00 18.59  0.00                                                                
0.00  0.00 65.92                                                                
%ENDBLOCK LATTICE_CART                                                          
%BLOCK POSITIONS_ABS                                                            
C  0.00  0.00  3.30                                                             
C  0.00  0.00 16.48                                                             
C  0.00  0.00 29.66                                                             
C  0.00  0.00 42.85                                                             
C  0.00  0.00 56.03                                                             
C  0.00  4.65  3.30                                                             
C  0.00  4.65 16.48                                                             
C  0.00  4.65 29.66                                                             
C  0.00  4.65 42.85                                                             
C  0.00  4.65 56.03                                                             
C  4.03  2.32  3.30                                                             
C  4.03  2.32 16.48                                                             
C  4.03  2.32 29.66                                                             
C  4.03  2.32 42.85                                                             
C  4.03  2.32 56.03                                                             
C  8.05  0.00  3.30                                                             
C  8.05  0.00 16.48                                                             
C  8.05  0.00 29.66                                                             
C  8.05  0.00 42.85                                                             
C  8.05  0.00 56.03                                                             
C  0.00  9.30  3.30                                                             
C  0.00  9.30 16.48                                                             
C  0.00  9.30 29.66                                                             
C  0.00  9.30 42.85                                                             
C  0.00  9.30 56.03                                                             
C  4.03  6.97  3.30                                                             
C  4.03  6.97 16.48                                                             
C  4.03  6.97 29.66                                                             
C  4.03  6.97 42.85                                                             
C  4.03  6.97 56.03                                                             
C  8.05  4.65  3.30                                                             
C  8.05  4.65 16.48                                                             
C  8.05  4.65 29.66                                                             
C  8.05  4.65 42.85                                                             
C  8.05  4.65 56.03                                                             
C 12.08  2.32  3.30                                                             
C 12.08  2.32 16.48                                                             
C 12.08  2.32 29.66                                                             
C 12.08  2.32 42.85                                                             
C 12.08  2.32 56.03                                                             
C 16.10  0.00  3.30                                                             
C 16.10  0.00 16.48                                                             
C 16.10  0.00 29.66                                                             
C 16.10  0.00 42.85                                                             
C 16.10  0.00 56.03                                                             
C  0.00 13.95  3.30                                                             
C  0.00 13.95 16.48                                                             
C  0.00 13.95 29.66                                                             
C  0.00 13.95 42.85                                                             
C  0.00 13.95 56.03                                                             
C  4.03 11.62  3.30                                                             
C  4.03 11.62 16.48                                                             
C  4.03 11.62 29.66                                                             
C  4.03 11.62 42.85                                                             
C  4.03 11.62 56.03                                                             
C  8.05  9.30  3.30                                                             
C  8.05  9.30 16.48                                                             
C  8.05  9.30 29.66                                                             
C  8.05  9.30 42.85                                                             
C  8.05  9.30 56.03                                                             
C 12.08  6.97  3.30                                                             
C 12.08  6.97 16.48                                                             
C 12.08  6.97 29.66                                                             
C 12.08  6.97 42.85                                                             
C 12.08  6.97 56.03                                                             
C 16.10  4.65  3.30                                                             
C 16.10  4.65 16.48                                                             
C 16.10  4.65 29.66                                                             
C 16.10  4.65 42.85                                                             
C 16.10  4.65 56.03                                                             
C 20.13  2.32  3.30                                                             
C 20.13  2.32 16.48                                                             
C 20.13  2.32 29.66                                                             
C 20.13  2.32 42.85                                                             
C 20.13  2.32 56.03                                                             
C 24.16  0.00  3.30                                                             
C 24.16  0.00 16.48                                                             
C 24.16  0.00 29.66                                                             
C 24.16  0.00 42.85                                                             
C 24.16  0.00 56.03                                                             
C  4.03 16.27  3.30                                                             
C  4.03 16.27 16.48                                                             
C  4.03 16.27 29.66                                                             
C  4.03 16.27 42.85                                                             
C  4.03 16.27 56.03                                                             
C  8.05 13.95  3.30                                                             
C  8.05 13.95 16.48                                                             
C  8.05 13.95 29.66                                                             
C  8.05 13.95 42.85                                                             
C  8.05 13.95 56.03                                                             
C 12.08 11.62  3.30                                                             
C 12.08 11.62 16.48                                                             
C 12.08 11.62 29.66                                                             
C 12.08 11.62 42.85                                                             
C 12.08 11.62 56.03                                                             
C 16.10  9.30  3.30                                                             
C 16.10  9.30 16.48                                                             
C 16.10  9.30 29.66                                                             
C 16.10  9.30 42.85                                                             
C 16.10  9.30 56.03                                                             
C 20.13  6.97  3.30                                                             
C 20.13  6.97 16.48                                                             
C 20.13  6.97 29.66                                                             
C 20.13  6.97 42.85                                                             
C 20.13  6.97 56.03                                                             
C 24.16  4.65  3.30                                                             
C 24.16  4.65 16.48                                                             
C 24.16  4.65 29.66                                                             
C 24.16  4.65 42.85                                                             
C 24.16  4.65 56.03                                                             
C 28.18  2.32  3.30                                                             
C 28.18  2.32 16.48                                                             
C 28.18  2.32 29.66                                                             
C 28.18  2.32 42.85                                                             
C 28.18  2.32 56.03                                                             
C 12.08 16.27  3.30                                                             
C 12.08 16.27 16.48                                                             
C 12.08 16.27 29.66                                                             
C 12.08 16.27 42.85                                                             
C 12.08 16.27 56.03                                                             
C 16.10 13.95  3.30                                                             
C 16.10 13.95 16.48                                                             
C 16.10 13.95 29.66                                                             
C 16.10 13.95 42.85                                                             
C 16.10 13.95 56.03                                                             
C 20.13 11.62  3.30                                                             
C 20.13 11.62 16.48                                                             
C 20.13 11.62 29.66                                                             
C 20.13 11.62 42.85                                                             
C 20.13 11.62 56.03                                                             
C 24.16  9.30  3.30                                                             
C 24.16  9.30 16.48                                                             
C 24.16  9.30 29.66                                                             
C 24.16  9.30 42.85                                                             
C 24.16  9.30 56.03                                                             
C 28.18  6.97  3.30                                                             
C 28.18  6.97 16.48                                                             
C 28.18  6.97 29.66                                                             
C 28.18  6.97 42.85                                                             
C 28.18  6.97 56.03                                                             
C 20.13 16.27  3.30                                                             
C 20.13 16.27 16.48                                                             
C 20.13 16.27 29.66                                                             
C 20.13 16.27 42.85                                                             
C 20.13 16.27 56.03                                                             
C 24.16 13.95  3.30                                                             
C 24.16 13.95 16.48                                                             
C 24.16 13.95 29.66                                                             
C 24.16 13.95 42.85                                                             
C 24.16 13.95 56.03                                                             
C 28.18 11.62  3.30                                                             
C 28.18 11.62 16.48                                                             
C 28.18 11.62 29.66                                                             
C 28.18 11.62 42.85                                                             
C 28.18 11.62 56.03                                                             
C 28.18 16.27  3.30                                                             
C 28.18 16.27 16.48                                                             
C 28.18 16.27 29.66                                                             
C 28.18 16.27 42.85                                                             
C 28.18 16.27 56.03                                                             
C  0.00  0.00  9.89                                                             
C  0.00  0.00 23.07                                                             
C  0.00  0.00 36.25                                                             
C  0.00  0.00 49.44                                                             
C  0.00  0.00 62.62                                                             
C  0.00  4.65  9.89                                                             
C  0.00  4.65 23.07                                                             
C  0.00  4.65 36.25                                                             
C  0.00  4.65 49.44                                                             
C  0.00  4.65 62.62                                                             
C  4.03  2.32  9.89                                                             
C  4.03  2.32 23.07                                                             
C  4.03  2.32 36.25                                                             
C  4.03  2.32 49.44                                                             
C  4.03  2.32 62.62                                                             
C  8.05  0.00  9.89                                                             
C  8.05  0.00 23.07                                                             
C  8.05  0.00 36.25                                                             
C  8.05  0.00 49.44                                                             
C  8.05  0.00 62.62                                                             
C  0.00  9.30  9.89                                                             
C  0.00  9.30 23.07                                                             
C  0.00  9.30 36.25                                                             
C  0.00  9.30 49.44                                                             
C  0.00  9.30 62.62                                                             
C  4.03  6.97  9.89                                                             
C  4.03  6.97 23.07                                                             
C  4.03  6.97 36.25                                                             
C  4.03  6.97 49.44                                                             
C  4.03  6.97 62.62                                                             
C  8.05  4.65  9.89                                                             
C  8.05  4.65 23.07                                                             
C  8.05  4.65 36.25                                                             
C  8.05  4.65 49.44                                                             
C  8.05  4.65 62.62                                                             
C 12.08  2.32  9.89                                                             
C 12.08  2.32 23.07                                                             
C 12.08  2.32 36.25                                                             
C 12.08  2.32 49.44                                                             
C 12.08  2.32 62.62                                                             
C 16.10  0.00  9.89                                                             
C 16.10  0.00 23.07                                                             
C 16.10  0.00 36.25                                                             
C 16.10  0.00 49.44                                                             
C 16.10  0.00 62.62                                                             
C  0.00 13.95  9.89                                                             
C  0.00 13.95 23.07                                                             
C  0.00 13.95 36.25                                                             
C  0.00 13.95 49.44                                                             
C  0.00 13.95 62.62                                                             
C  4.03 11.62  9.89                                                             
C  4.03 11.62 23.07                                                             
C  4.03 11.62 36.25                                                             
C  4.03 11.62 49.44                                                             
C  4.03 11.62 62.62                                                             
C  8.05  9.30  9.89                                                             
C  8.05  9.30 23.07                                                             
C  8.05  9.30 36.25                                                             
C  8.05  9.30 49.44                                                             
C  8.05  9.30 62.62                                                             
C 12.08  6.97  9.89                                                             
C 12.08  6.97 23.07                                                             
C 12.08  6.97 36.25                                                             
C 12.08  6.97 49.44                                                             
C 12.08  6.97 62.62                                                             
C 16.10  4.65  9.89                                                             
C 16.10  4.65 23.07                                                             
C 16.10  4.65 36.25                                                             
C 16.10  4.65 49.44                                                             
C 16.10  4.65 62.62                                                             
C 20.13  2.32  9.89                                                             
C 20.13  2.32 23.07                                                             
C 20.13  2.32 36.25                                                             
C 20.13  2.32 49.44                                                             
C 20.13  2.32 62.62                                                             
C 24.16  0.00  9.89                                                             
C 24.16  0.00 23.07                                                             
C 24.16  0.00 36.25                                                             
C 24.16  0.00 49.44                                                             
C 24.16  0.00 62.62                                                             
C  4.03 16.27  9.89                                                             
C  4.03 16.27 23.07                                                             
C  4.03 16.27 36.25                                                             
C  4.03 16.27 49.44                                                             
C  4.03 16.27 62.62                                                             
C  8.05 13.95  9.89                                                             
C  8.05 13.95 23.07                                                             
C  8.05 13.95 36.25                                                             
C  8.05 13.95 49.44                                                             
C  8.05 13.95 62.62                                                             
C 12.08 11.62  9.89                                                             
C 12.08 11.62 23.07                                                             
C 12.08 11.62 36.25                                                             
C 12.08 11.62 49.44                                                             
C 12.08 11.62 62.62                                                             
C 16.10  9.30  9.89                                                             
C 16.10  9.30 23.07                                                             
C 16.10  9.30 36.25                                                             
C 16.10  9.30 49.44                                                             
C 16.10  9.30 62.62                                                             
C 20.13  6.97  9.89                                                             
C 20.13  6.97 23.07                                                             
C 20.13  6.97 36.25                                                             
C 20.13  6.97 49.44                                                             
C 20.13  6.97 62.62                                                             
C 24.16  4.65  9.89                                                             
C 24.16  4.65 23.07                                                             
C 24.16  4.65 36.25                                                             
C 24.16  4.65 49.44                                                             
C 24.16  4.65 62.62                                                             
C 28.18  2.32  9.89                                                             
C 28.18  2.32 23.07                                                             
C 28.18  2.32 36.25                                                             
C 28.18  2.32 49.44                                                             
C 28.18  2.32 62.62                                                             
C 12.08 16.27  9.89                                                             
C 12.08 16.27 23.07                                                             
C 12.08 16.27 36.25                                                             
C 12.08 16.27 49.44                                                             
C 12.08 16.27 62.62                                                             
C 16.10 13.95  9.89                                                             
C 16.10 13.95 23.07                                                             
C 16.10 13.95 36.25                                                             
C 16.10 13.95 49.44                                                             
C 16.10 13.95 62.62                                                             
C 20.13 11.62  9.89                                                             
C 20.13 11.62 23.07                                                             
C 20.13 11.62 36.25                                                             
C 20.13 11.62 49.44                                                             
C 20.13 11.62 62.62                                                             
C 24.16  9.30  9.89                                                             
C 24.16  9.30 23.07                                                             
C 24.16  9.30 36.25                                                             
C 24.16  9.30 49.44                                                             
C 24.16  9.30 62.62                                                             
C 28.18  6.97  9.89                                                             
C 28.18  6.97 23.07                                                             
C 28.18  6.97 36.25                                                             
C 28.18  6.97 49.44                                                             
C 28.18  6.97 62.62                                                             
C 20.13 16.27  9.89                                                             
C 20.13 16.27 23.07                                                             
C 20.13 16.27 36.25                                                             
C 20.13 16.27 49.44                                                             
C 20.13 16.27 62.62                                                             
C 24.16 13.95  9.89                                                             
C 24.16 13.95 23.07                                                             
C 24.16 13.95 36.25                                                             
C 24.16 13.95 49.44                                                             
C 24.16 13.95 62.62                                                             
C 28.18 11.62  9.89                                                             
C 28.18 11.62 23.07                                                             
C 28.18 11.62 36.25                                                             
C 28.18 11.62 49.44                                                             
C 28.18 11.62 62.62                                                             
C 28.18 16.27  9.89                                                             
C 28.18 16.27 23.07                                                             
C 28.18 16.27 36.25                                                             
C 28.18 16.27 49.44                                                             
C 28.18 16.27 62.62                                                             
C  1.34  2.32  3.30                                                             
C  1.34  2.32 16.48                                                             
C  1.34  2.32 29.66                                                             
C  1.34  2.32 42.85                                                             
C  1.34  2.32 56.03                                                             
C  5.37  0.00  3.30                                                             
C  5.37  0.00 16.48                                                             
C  5.37  0.00 29.66                                                             
C  5.37  0.00 42.85                                                             
C  5.37  0.00 56.03                                                             
C  1.34  6.97  3.30                                                             
C  1.34  6.97 16.48                                                             
C  1.34  6.97 29.66                                                             
C  1.34  6.97 42.85                                                             
C  1.34  6.97 56.03                                                             
C  5.37  4.65  3.30                                                             
C  5.37  4.65 16.48                                                             
C  5.37  4.65 29.66                                                             
C  5.37  4.65 42.85                                                             
C  5.37  4.65 56.03                                                             
C  9.39  2.32  3.30                                                             
C  9.39  2.32 16.48                                                             
C  9.39  2.32 29.66                                                             
C  9.39  2.32 42.85                                                             
C  9.39  2.32 56.03                                                             
C 13.42  0.00  3.30                                                             
C 13.42  0.00 16.48                                                             
C 13.42  0.00 29.66                                                             
C 13.42  0.00 42.85                                                             
C 13.42  0.00 56.03                                                             
C  1.34 11.62  3.30                                                             
C  1.34 11.62 16.48                                                             
C  1.34 11.62 29.66                                                             
C  1.34 11.62 42.85                                                             
C  1.34 11.62 56.03                                                             
C  5.37  9.30  3.30                                                             
C  5.37  9.30 16.48                                                             
C  5.37  9.30 29.66                                                             
C  5.37  9.30 42.85                                                             
C  5.37  9.30 56.03                                                             
C  9.39  6.97  3.30                                                             
C  9.39  6.97 16.48                                                             
C  9.39  6.97 29.66                                                             
C  9.39  6.97 42.85                                                             
C  9.39  6.97 56.03                                                             
C 13.42  4.65  3.30                                                             
C 13.42  4.65 16.48                                                             
C 13.42  4.65 29.66                                                             
C 13.42  4.65 42.85                                                             
C 13.42  4.65 56.03                                                             
C 17.45  2.32  3.30                                                             
C 17.45  2.32 16.48                                                             
C 17.45  2.32 29.66                                                             
C 17.45  2.32 42.85                                                             
C 17.45  2.32 56.03                                                             
C 21.47  0.00  3.30                                                             
C 21.47  0.00 16.48                                                             
C 21.47  0.00 29.66                                                             
C 21.47  0.00 42.85                                                             
C 21.47  0.00 56.03                                                             
C  1.34 16.27  3.30                                                             
C  1.34 16.27 16.48                                                             
C  1.34 16.27 29.66                                                             
C  1.34 16.27 42.85                                                             
C  1.34 16.27 56.03                                                             
C  5.37 13.95  3.30                                                             
C  5.37 13.95 16.48                                                             
C  5.37 13.95 29.66                                                             
C  5.37 13.95 42.85                                                             
C  5.37 13.95 56.03                                                             
C  9.39 11.62  3.30                                                             
C  9.39 11.62 16.48                                                             
C  9.39 11.62 29.66                                                             
C  9.39 11.62 42.85                                                             
C  9.39 11.62 56.03                                                             
C 13.42  9.30  3.30                                                             
C 13.42  9.30 16.48                                                             
C 13.42  9.30 29.66                                                             
C 13.42  9.30 42.85                                                             
C 13.42  9.30 56.03                                                             
C 17.45  6.97  3.30                                                             
C 17.45  6.97 16.48                                                             
C 17.45  6.97 29.66                                                             
C 17.45  6.97 42.85                                                             
C 17.45  6.97 56.03                                                             
C 21.47  4.65  3.30                                                             
C 21.47  4.65 16.48                                                             
C 21.47  4.65 29.66                                                             
C 21.47  4.65 42.85                                                             
C 21.47  4.65 56.03                                                             
C 25.50  2.32  3.30                                                             
C 25.50  2.32 16.48                                                             
C 25.50  2.32 29.66                                                             
C 25.50  2.32 42.85                                                             
C 25.50  2.32 56.03                                                             
C 29.52  0.00  3.30                                                             
C 29.52  0.00 16.48                                                             
C 29.52  0.00 29.66                                                             
C 29.52  0.00 42.85                                                             
C 29.52  0.00 56.03                                                             
C  9.39 16.27  3.30                                                             
C  9.39 16.27 16.48                                                             
C  9.39 16.27 29.66                                                             
C  9.39 16.27 42.85                                                             
C  9.39 16.27 56.03                                                             
C 13.42 13.95  3.30                                                             
C 13.42 13.95 16.48                                                             
C 13.42 13.95 29.66                                                             
C 13.42 13.95 42.85                                                             
C 13.42 13.95 56.03                                                             
C 17.45 11.62  3.30                                                             
C 17.45 11.62 16.48                                                             
C 17.45 11.62 29.66                                                             
C 17.45 11.62 42.85                                                             
C 17.45 11.62 56.03                                                             
C 21.47  9.30  3.30                                                             
C 21.47  9.30 16.48                                                             
C 21.47  9.30 29.66                                                             
C 21.47  9.30 42.85                                                             
C 21.47  9.30 56.03                                                             
C 25.50  6.97  3.30                                                             
C 25.50  6.97 16.48                                                             
C 25.50  6.97 29.66                                                             
C 25.50  6.97 42.85                                                             
C 25.50  6.97 56.03                                                             
C 29.52  4.65  3.30                                                             
C 29.52  4.65 16.48                                                             
C 29.52  4.65 29.66                                                             
C 29.52  4.65 42.85                                                             
C 29.52  4.65 56.03                                                             
C 17.45 16.27  3.30                                                             
C 17.45 16.27 16.48                                                             
C 17.45 16.27 29.66                                                             
C 17.45 16.27 42.85                                                             
C 17.45 16.27 56.03                                                             
C 21.47 13.95  3.30                                                             
C 21.47 13.95 16.48                                                             
C 21.47 13.95 29.66                                                             
C 21.47 13.95 42.85                                                             
C 21.47 13.95 56.03                                                             
C 25.50 11.62  3.30                                                             
C 25.50 11.62 16.48                                                             
C 25.50 11.62 29.66                                                             
C 25.50 11.62 42.85                                                             
C 25.50 11.62 56.03                                                             
C 29.52  9.30  3.30                                                             
C 29.52  9.30 16.48                                                             
C 29.52  9.30 29.66                                                             
C 29.52  9.30 42.85                                                             
C 29.52  9.30 56.03                                                             
C 25.50 16.27  3.30                                                             
C 25.50 16.27 16.48                                                             
C 25.50 16.27 29.66                                                             
C 25.50 16.27 42.85                                                             
C 25.50 16.27 56.03                                                             
C 29.52 13.95  3.30                                                             
C 29.52 13.95 16.48                                                             
C 29.52 13.95 29.66                                                             
C 29.52 13.95 42.85                                                             
C 29.52 13.95 56.03                                                             
C  2.68  0.00  9.89                                                             
C  2.68  0.00 23.07                                                             
C  2.68  0.00 36.25                                                             
C  2.68  0.00 49.44                                                             
C  2.68  0.00 62.62                                                             
C  2.68  4.65  9.89                                                             
C  2.68  4.65 23.07                                                             
C  2.68  4.65 36.25                                                             
C  2.68  4.65 49.44                                                             
C  2.68  4.65 62.62                                                             
C  6.71  2.32  9.89                                                             
C  6.71  2.32 23.07                                                             
C  6.71  2.32 36.25                                                             
C  6.71  2.32 49.44                                                             
C  6.71  2.32 62.62                                                             
C 10.74  0.00  9.89                                                             
C 10.74  0.00 23.07                                                             
C 10.74  0.00 36.25                                                             
C 10.74  0.00 49.44                                                             
C 10.74  0.00 62.62                                                             
C  2.68  9.30  9.89                                                             
C  2.68  9.30 23.07                                                             
C  2.68  9.30 36.25                                                             
C  2.68  9.30 49.44                                                             
C  2.68  9.30 62.62                                                             
C  6.71  6.97  9.89                                                             
C  6.71  6.97 23.07                                                             
C  6.71  6.97 36.25                                                             
C  6.71  6.97 49.44                                                             
C  6.71  6.97 62.62                                                             
C 10.74  4.65  9.89                                                             
C 10.74  4.65 23.07                                                             
C 10.74  4.65 36.25                                                             
C 10.74  4.65 49.44                                                             
C 10.74  4.65 62.62                                                             
C 14.76  2.32  9.89                                                             
C 14.76  2.32 23.07                                                             
C 14.76  2.32 36.25                                                             
C 14.76  2.32 49.44                                                             
C 14.76  2.32 62.62                                                             
C 18.79  0.00  9.89                                                             
C 18.79  0.00 23.07                                                             
C 18.79  0.00 36.25                                                             
C 18.79  0.00 49.44                                                             
C 18.79  0.00 62.62                                                             
C  2.68 13.95  9.89                                                             
C  2.68 13.95 23.07                                                             
C  2.68 13.95 36.25                                                             
C  2.68 13.95 49.44                                                             
C  2.68 13.95 62.62                                                             
C  6.71 11.62  9.89                                                             
C  6.71 11.62 23.07                                                             
C  6.71 11.62 36.25                                                             
C  6.71 11.62 49.44                                                             
C  6.71 11.62 62.62                                                             
C 10.74  9.30  9.89                                                             
C 10.74  9.30 23.07                                                             
C 10.74  9.30 36.25                                                             
C 10.74  9.30 49.44                                                             
C 10.74  9.30 62.62                                                             
C 14.76  6.97  9.89                                                             
C 14.76  6.97 23.07                                                             
C 14.76  6.97 36.25                                                             
C 14.76  6.97 49.44                                                             
C 14.76  6.97 62.62                                                             
C 18.79  4.65  9.89                                                             
C 18.79  4.65 23.07                                                             
C 18.79  4.65 36.25                                                             
C 18.79  4.65 49.44                                                             
C 18.79  4.65 62.62                                                             
C 22.81  2.32  9.89                                                             
C 22.81  2.32 23.07                                                             
C 22.81  2.32 36.25                                                             
C 22.81  2.32 49.44                                                             
C 22.81  2.32 62.62                                                             
C 26.84  0.00  9.89                                                             
C 26.84  0.00 23.07                                                             
C 26.84  0.00 36.25                                                             
C 26.84  0.00 49.44                                                             
C 26.84  0.00 62.62                                                             
C  6.71 16.27  9.89                                                             
C  6.71 16.27 23.07                                                             
C  6.71 16.27 36.25                                                             
C  6.71 16.27 49.44                                                             
C  6.71 16.27 62.62                                                             
C 10.74 13.95  9.89                                                             
C 10.74 13.95 23.07                                                             
C 10.74 13.95 36.25                                                             
C 10.74 13.95 49.44                                                             
C 10.74 13.95 62.62                                                             
C 14.76 11.62  9.89                                                             
C 14.76 11.62 23.07                                                             
C 14.76 11.62 36.25                                                             
C 14.76 11.62 49.44                                                             
C 14.76 11.62 62.62                                                             
C 18.79  9.30  9.89                                                             
C 18.79  9.30 23.07                                                             
C 18.79  9.30 36.25                                                             
C 18.79  9.30 49.44                                                             
C 18.79  9.30 62.62                                                             
C 22.81  6.97  9.89                                                             
C 22.81  6.97 23.07                                                             
C 22.81  6.97 36.25                                                             
C 22.81  6.97 49.44                                                             
C 22.81  6.97 62.62                                                             
C 26.84  4.65  9.89                                                             
C 26.84  4.65 23.07                                                             
C 26.84  4.65 36.25                                                             
C 26.84  4.65 49.44                                                             
C 26.84  4.65 62.62                                                             
C 30.86  2.32  9.89                                                             
C 30.86  2.32 23.07                                                             
C 30.86  2.32 36.25                                                             
C 30.86  2.32 49.44                                                             
C 30.86  2.32 62.62                                                             
C 14.76 16.27  9.89                                                             
C 14.76 16.27 23.07                                                             
C 14.76 16.27 36.25                                                             
C 14.76 16.27 49.44                                                             
C 14.76 16.27 62.62                                                             
C 18.79 13.95  9.89                                                             
C 18.79 13.95 23.07                                                             
C 18.79 13.95 36.25                                                             
C 18.79 13.95 49.44                                                             
C 18.79 13.95 62.62                                                             
C 22.81 11.62  9.89                                                             
C 22.81 11.62 23.07                                                             
C 22.81 11.62 36.25                                                             
C 22.81 11.62 49.44                                                             
C 22.81 11.62 62.62                                                             
C 26.84  9.30  9.89                                                             
C 26.84  9.30 23.07                                                             
C 26.84  9.30 36.25                                                             
C 26.84  9.30 49.44                                                             
C 26.84  9.30 62.62                                                             
C 30.86  6.97  9.89                                                             
C 30.86  6.97 23.07                                                             
C 30.86  6.97 36.25                                                             
C 30.86  6.97 49.44                                                             
C 30.86  6.97 62.62                                                             
C 22.81 16.27  9.89                                                             
C 22.81 16.27 23.07                                                             
C 22.81 16.27 36.25                                                             
C 22.81 16.27 49.44                                                             
C 22.81 16.27 62.62                                                             
C 26.84 13.95  9.89                                                             
C 26.84 13.95 23.07                                                             
C 26.84 13.95 36.25                                                             
C 26.84 13.95 49.44                                                             
C 26.84 13.95 62.62                                                             
C 30.86 11.62  9.89                                                             
C 30.86 11.62 23.07                                                             
C 30.86 11.62 36.25                                                             
C 30.86 11.62 49.44                                                             
C 30.86 11.62 62.62                                                             
C 30.86 16.27  9.89                                                             
C 30.86 16.27 23.07                                                             
C 30.86 16.27 36.25                                                             
C 30.86 16.27 49.44                                                             
C 30.86 16.27 62.62                                                             
%ENDBLOCK POSITIONS_ABS                                                         

--------------------------------------------------------------------------------
-------------------------------- END INPUT FILE --------------------------------
--------------------------------------------------------------------------------


 
<<<<<<<<<<<<<<<<<<<<<<<<<<<<<<<<< Full system >>>>>>>>>>>>>>>>>>>>>>>>>>>>>>>>>>
<<<<<<<<<<<<<<<<<<<<<<<<<<< PAW Dataset information >>>>>>>>>>>>>>>>>>>>>>>>>>>
File: ~/pp/paw/c_pbe_abinit.paw; rc = 1.25 bohr; shape type =  3; rshape = 1.25 bohr;
  Atomic number:  6;  ionic charge:  4.000000
    Partial Wave 1: l = 0
    Partial Wave 2: l = 0
    Partial Wave 3: l = 1
    Partial Wave 4: l = 1
  Core charge supplied for Nonlinear Core Corrections
<<<<<<<<<<<<<<<<<<<<<<<<<<<<<<<<<<<<<<< >>>>>>>>>>>>>>>>>>>>>>>>>>>>>>>>>>>>>>>

-------------------------- Atom counting information ---------------------------
Symbol    Natoms    Nngwfs    Nprojs
  C        640      2560      5120
.......   ......    ......    ......
Totals:    640      2560      5120
--------------------------------------------------------------------------------

=============================== PSINC grid sizes ===============================
                      Simulation cell:   63 x  35 x 130
                              FFT-box:   63 x  35 x 117
                                  PPD:    7 x   5 x   1
Grid space d1=  0.511269841270a0 (KE cutoff=  29.06054Eh = 790.77748eV)
Grid space d2=  0.531142857143a0 (KE cutoff=  26.92659Eh = 732.70972eV)
Grid space d3=  0.507076923077a0 (KE cutoff=  29.54312Eh = 803.90911eV)
================================================================================
  
WARNING in cell_grid_distribute:
Average of less than one 23-slab per node, so workload cannot be
equally balanced between nodes.

********************* Fourier parallelisation information **********************
       Coarse grid (whole simulation cell) dimensions:     63    35   130
          Real-space ('12') slabs/node (min max mean):      3     4     3
         Recip-space ('23') slabs/node (min max mean):      0     1     0
********************************************************************************

********************* Fourier parallelisation information **********************
       Double grid (whole simulation cell) dimensions:    126    70   260
          Real-space ('12') slabs/node (min max mean):      6     7     6
         Recip-space ('23') slabs/node (min max mean):      1     2     1
********************************************************************************

Atom SCF Calculation for C  : Z (AE atom) =   6 : Z (PS atom) =   4
Config String: 2s2 2p2
Orbitals (num,occ):  2     2.00 2.00
Orbitals   (num,l):  2        0    1
Real-space Grid (nr,dr,rmax): 1293    0.0069659443    9.0000000000
Spherical Bessel Basis (nsws,lmax,cutoff):   37    2  161.4736382572
Confining potential (l,width,scale):  0    3.0000000000  100.0000000000
Confining potential (l,width,scale):  1    3.0000000000  100.0000000000
  1         -5.4129360987   -1.2444937266    4.5135257941   -1.5420271367
  2         -5.3444202281   -1.3377187790    4.4131101426   -1.5071921700
  3         -5.3525226456   -1.3566567794    4.3924752240   -1.5004938544
  4         -5.3561013121   -1.3623552809    4.3862114699   -1.4986199617
  5         -5.3580093800   -1.3653574582    4.3828991843   -1.4976654093
  6         -5.3590276761   -1.3669475005    4.3811409016   -1.4971696795
  7         -5.3595688314   -1.3677934914    4.3802040659   -1.4969088858
  8         -5.3598556216   -1.3682449178    4.3797036984   -1.4967706290
  9         -5.3600074081   -1.3684862338    4.3794360452   -1.4966970063
 10         -5.3600877081   -1.3686153812    4.3792927313   -1.4966576988
 11         -5.3601301919   -1.3686845537    4.3792159394   -1.4966366788
 12         -5.3601526758   -1.3687216261    4.3791747687   -1.4966254262
 13         -5.3601645804   -1.3687415049    4.3791526850   -1.4966193980
 14         -5.3601708871   -1.3687521691    4.3791408341   -1.4966161667
 15         -5.3601742301   -1.3687578926    4.3791344719   -1.4966144337
 16         -5.3601760032   -1.3687609656    4.3791310549   -1.4966135039
 17         -5.3601769442   -1.3687626162    4.3791292190   -1.4966130048
 18         -5.3601774440   -1.3687635032    4.3791282322   -1.4966127369
 19         -5.3601777096   -1.3687639799    4.3791277016   -1.4966125929
 20         -5.3601778508   -1.3687642363    4.3791274162   -1.4966125155
 21         -5.3601779259   -1.3687643743    4.3791272626   -1.4966124740
Atom SCF converged after  21 iterations to a total energy of     -5.36017793

Determining parallel strategy ...
... using space-filling curve
... NGWF load balancing: max     64;  min     64;  average     64
... Projector load balancing: max    128;  min    128;  average    128
... done
Calculating Ewald energy ...
              Ewald: real-space energy =    9488.262882
        Ewald: reciprocal-space energy =       0.145035
         Ewald: (sum_charge)**2 Energy =   11167.625436
         Ewald: (sum_charge**2) Energy =     882.878311
                          Ewald Energy =   -2562.095829
Basis initialisation ...... NGWF spheres initialised
... Projector spheres initialised
... NGWF tight boxes initialised
... Projector tight boxes initialised
... Tight-boxes gathered
... NGWF basis size (local,global):     693268  27922112
... PAW projector initialisation
... done

============================= Charge Augmentation ==============================
                           Aug box size:   11 x  11 x  11
================================================================================

========================== Sparse matrix information ===========================
                        Overlap matrix filling:  42.19%
                        Density kernel filling: 100.00%
              NGWF-Proj overlap matrix filling:  12.19%
                    Aug Overlap matrix filling:  47.03%
                    Hamiltonian matrix filling:  47.03%
                  NGWF diagonal matrix filling:   0.16%
                             KS matrix filling: 100.00% 
                           KSKS matrix filling: 100.00% 
================================================================================

Sparse matrix initialisation ... done
NGWF initialisation ...... done
============ Calculation of NGWF S^-1 using Hotelling algorithm ================ 
         Iteration  |  Frobenius norm and Maximum abs value    (of I-S*S_n^-1)   
               1       0.49079042E+02     0.97633498E+00
               2       0.47864005E+02     0.95447298E+00
               3       0.46037513E+02     0.91525310E+00
               4       0.43666369E+02     0.85032296E+00
               5       0.40830137E+02     0.75384003E+00
               6       0.37532604E+02     0.68107734E+00
               7       0.34094432E+02     0.63374052E+00
               8       0.30837587E+02     0.59473154E+00
               9       0.27407799E+02     0.55342811E+00
              10       0.23102459E+02     0.48912873E+00
              11       0.17456665E+02     0.38548000E+00
              12       0.10786783E+02     0.24452723E+00
              13       0.46864942E+01     0.10446995E+00
              14       0.10553268E+01     0.21732820E-01
              15       0.63538281E-01     0.11481679E-02
              16       0.28849305E-03     0.40679204E-05
              17       0.88589254E-08     0.77856499E-10
              18       0.83597127E-13     0.47739590E-14
================================================================================
Calculating core density ...
================================= Core Density =================================
               Core den box size:   21 x  21 x  21
================================================================================
 ... done
Up spin density kernel initialisation ...... done

Writing density kernel to file "3.488156_GO_manual_4x64graphite.dkn" ... done

>>> Optimising kernel for current NGWFs:

--------------------------- Ensemble-DFT optimisation --------------------------
Running ScaLAPACK on   40 processor(s).

--------------------------------------------------------------------------------
  Iter                              Commutator    Free_energy(A=E-TS)     DeltaA
#    0                          0.000033454422   -3617.51374029681438  -3.62E+03

Step                       =       0.381966011250
Energy                     =   -3617.513712058510
Entropy (-TS)              =      -0.000028237906
Free energy (A=E-TS)       =   -3617.513740296814
Est. 0K Energy 0.5*(E+A)   =   -3617.513726177662
Residual Non-orthogonality =       0.000000000000
Residual N_electrons       =      -0.000000000399

Spin          Integrated_Ne            Fermi_level     Delta_Fermi_level
   1      2560.000000002022         0.197327286514              1.97E-01

                           Spin 1          
     Orb      H-eigenvalues     Occupancies
       1 |    -0.5288148988    1.0000000000 | 
                          ------
    1276 |     0.1629043822    0.9999809780 | 
    1277 |     0.1635249872    0.9999768599 | 
    1278 |     0.1635363697    0.9999767766 | 
    1279 |     0.1639055920    0.9999739049 | 
    1280 |     0.1645342248    0.9999681751 | 
                 - Gap at zero temperature -
    1281 |     0.2328045838    0.0000136352 | 
    1282 |     0.2328124338    0.0000136014 | 
    1283 |     0.2328700207    0.0000133563 | 
    1284 |     0.2330072096    0.0000127901 | 
    1285 |     0.2330106906    0.0000127760 | 
                          ------
    2560 |     1.0385130199    0.0000000000 | 

                       |  Abs_value |  Threshold | Converged
     Delta_Free_energy |   3.62E+03 |   1.00E-06 |        No
     Delta_Energy      |   3.62E+03 |   1.00E-04 |        No
     Delta_Entropy     |   2.82E-05 |   1.00E-04 |       Yes
     Commutator        |   3.35E-05 |   1.00E-05 |        No
     Delta_Fermi_level |   1.97E-01 |   1.00E-03 |        No

  Line search of the free energy minimum:
  Step_type        Step             Free_energy   Predicted_free_energy
.   Initial    0.000000    -3617.51374029681438
.    Trial1    0.381966    -3617.51502520388431
.    Trial2    0.618034    -3617.51507523302007
. Quadratic    0.520777    -3617.51512358611490    -3617.51512347404378

--------------------------------------------------------------------------------
  Iter                              Commutator    Free_energy(A=E-TS)     DeltaA
#    1                          0.000019116119   -3617.51512358611490  -1.38E-03

Step                       =       0.520776940016
Energy                     =   -3617.515094657963
Entropy (-TS)              =      -0.000028927699
Free energy (A=E-TS)       =   -3617.515123586115
Est. 0K Energy 0.5*(E+A)   =   -3617.515109122039
Residual Non-orthogonality =       0.000000000000
Residual N_electrons       =      -0.000000000453

Spin          Integrated_Ne            Fermi_level     Delta_Fermi_level
   1      2560.000000002306         0.196438380302             -8.89E-04

                           Spin 1          
     Orb      H-eigenvalues     Occupancies
       1 |    -0.5297336092    1.0000000000 | 
                          ------
    1276 |     0.1621766141    0.9999799850 | 
    1277 |     0.1626524890    0.9999767397 | 
    1278 |     0.1626650004    0.9999766477 | 
    1279 |     0.1631821531    0.9999725052 | 
    1280 |     0.1636672014    0.9999679545 | 
                 - Gap at zero temperature -
    1281 |     0.2317836454    0.0000142157 | 
    1282 |     0.2318137948    0.0000140810 | 
    1283 |     0.2318647317    0.0000138563 | 
    1284 |     0.2319778495    0.0000133701 | 
    1285 |     0.2319878833    0.0000133278 | 
                          ------
    2560 |     1.0378423143    0.0000000000 | 

                       |  Abs_value |  Threshold | Converged
     Delta_Free_energy |   1.38E-03 |   1.00E-06 |        No
     Delta_Energy      |   1.38E-03 |   1.00E-04 |        No
     Delta_Entropy     |   6.90E-07 |   1.00E-04 |       Yes
     Commutator        |   1.91E-05 |   1.00E-05 |        No
     Delta_Fermi_level |   8.89E-04 |   1.00E-03 |       Yes

  Line search of the free energy minimum:
  Step_type        Step             Free_energy   Predicted_free_energy
.   Initial    0.000000    -3617.51512358611490
.    Trial1    0.520777    -3617.51516060688118
.    Trial2    0.703824    -3617.51456729051961
. Quadratic    0.267941    -3617.51546123107346    -3617.51546146377859

--------------------------------------------------------------------------------
  Iter                              Commutator    Free_energy(A=E-TS)     DeltaA
#    2                          0.000011072650   -3617.51546123107346  -3.38E-04

Step                       =       0.267940816990
Energy                     =   -3617.515432164487
Entropy (-TS)              =      -0.000029066646
Free energy (A=E-TS)       =   -3617.515461231073
Est. 0K Energy 0.5*(E+A)   =   -3617.515446697780
Residual Non-orthogonality =       0.000000000000
Residual N_electrons       =       0.000000000059

Spin          Integrated_Ne            Fermi_level     Delta_Fermi_level
   1      2559.999999999698         0.196201615429             -2.37E-04

                           Spin 1          
     Orb      H-eigenvalues     Occupancies
       1 |    -0.5299737634    1.0000000000 | 
                          ------
    1276 |     0.1619326306    0.9999800306 | 
    1277 |     0.1624490071    0.9999764940 | 
    1278 |     0.1624625869    0.9999763930 | 
    1279 |     0.1629344649    0.9999725999 | 
    1280 |     0.1634610571    0.9999676431 | 
                 - Gap at zero temperature -
    1281 |     0.2315428436    0.0000142338 | 
    1282 |     0.2315739599    0.0000140946 | 
    1283 |     0.2316221772    0.0000138816 | 
    1284 |     0.2317441283    0.0000133572 | 
    1285 |     0.2317542620    0.0000133146 | 
                          ------
    2560 |     1.0376500176    0.0000000000 | 

                       |  Abs_value |  Threshold | Converged
     Delta_Free_energy |   3.38E-04 |   1.00E-06 |        No
     Delta_Energy      |   3.38E-04 |   1.00E-04 |        No
     Delta_Entropy     |   1.39E-07 |   1.00E-04 |       Yes
     Commutator        |   1.11E-05 |   1.00E-05 |        No
     Delta_Fermi_level |   2.37E-04 |   1.00E-03 |       Yes

  Line search of the free energy minimum:
  Step_type        Step             Free_energy   Predicted_free_energy
.   Initial    0.000000    -3617.51546123107346
.    Trial1    0.267941    -3617.51557356207059
.    Trial2    0.547563    -3617.51554276343222
. Quadratic    0.350788    -3617.51558020555467    -3617.51558019789582

--------------------------------------------------------------------------------
  Iter                              Commutator    Free_energy(A=E-TS)     DeltaA
#    3                          0.000007744964   -3617.51558020555467  -1.19E-04

Step                       =       0.350788379699
Energy                     =   -3617.515551000181
Entropy (-TS)              =      -0.000029205557
Free energy (A=E-TS)       =   -3617.515580205555
Est. 0K Energy 0.5*(E+A)   =   -3617.515565602868
Residual Non-orthogonality =       0.000000000000
Residual N_electrons       =       0.000000000184

Spin          Integrated_Ne            Fermi_level     Delta_Fermi_level
   1      2559.999999999063         0.195972803571             -2.29E-04

                           Spin 1          
     Orb      H-eigenvalues     Occupancies
       1 |    -0.5301989900    1.0000000000 | 
                          ------
    1276 |     0.1617123740    0.9999799766 | 
    1277 |     0.1622409340    0.9999763396 | 
    1278 |     0.1622550822    0.9999762336 | 
    1279 |     0.1627123088    0.9999725422 | 
    1280 |     0.1632516573    0.9999674442 | 
                 - Gap at zero temperature -
    1281 |     0.2313014742    0.0000142903 | 
    1282 |     0.2313330373    0.0000141486 | 
    1283 |     0.2313800479    0.0000139401 | 
    1284 |     0.2315054437    0.0000133990 | 
    1285 |     0.2315156556    0.0000133558 | 
                          ------
    2560 |     1.0374767211    0.0000000000 | 

                       |  Abs_value |  Threshold | Converged
     Delta_Free_energy |   1.19E-04 |   1.00E-06 |        No
     Delta_Energy      |   1.19E-04 |   1.00E-04 |        No
     Delta_Entropy     |   1.39E-07 |   1.00E-04 |       Yes
     Commutator        |   7.74E-06 |   1.00E-05 |       Yes
     Delta_Fermi_level |   2.29E-04 |   1.00E-03 |       Yes

  Line search of the free energy minimum:
  Step_type        Step             Free_energy   Predicted_free_energy
.   Initial    0.000000    -3617.51558020555467
.    Trial1    0.350788    -3617.51562778616562
.    Trial2    0.598765    -3617.51555055958124
. Quadratic    0.266226    -3617.51563311927111    -3617.51563312522876

--------------------------------------------------------------------------------
  Iter                              Commutator    Free_energy(A=E-TS)     DeltaA
#    4                          0.000005128395   -3617.51563311927111  -5.29E-05

Step                       =       0.266226409933
Energy                     =   -3617.515603842330
Entropy (-TS)              =      -0.000029277125
Free energy (A=E-TS)       =   -3617.515633119271
[...]
 C   275 -- C   555       -0.10      5.37000
 C   274 -- C   554       -0.10      5.37000
 C   273 -- C   553       -0.10      5.37000
 C   272 -- C   552       -0.10      5.37000
 C   271 -- C   551       -0.10      5.37000
 C   270 -- C   550       -0.10      5.37000
 C   269 -- C   549       -0.10      5.37000
 C   268 -- C   548       -0.10      5.37000
 C   267 -- C   547       -0.10      5.37000
 C   266 -- C   546       -0.10      5.37000
 C   130 -- C   465       -0.10      5.37000
 C   129 -- C   464       -0.10      5.37000
 C   128 -- C   463       -0.10      5.37000
 C   127 -- C   462       -0.10      5.37000
 C   126 -- C   461       -0.10      5.37000
 C   240 -- C   525       -0.10      5.37000
 C   239 -- C   524       -0.10      5.37000
 C   238 -- C   523       -0.10      5.37000
 C   237 -- C   522       -0.10      5.37000
 C   236 -- C   521       -0.10      5.37000
 C    23 -- C   478       -0.10      5.37202
 C    49 -- C   469       -0.10      5.37202
 C    48 -- C   468       -0.10      5.37202
 C    47 -- C   467       -0.10      5.37202
 C    22 -- C   477       -0.10      5.37202
 C    46 -- C   466       -0.10      5.37202
 C    21 -- C   476       -0.10      5.37202
 C    25 -- C   480       -0.10      5.37202
 C    24 -- C   479       -0.10      5.37202
 C    50 -- C   470       -0.10      5.37202
 C    24 -- C   449       -0.10      5.37202
 C     6 -- C   416       -0.10      5.37202
 C    23 -- C   448       -0.10      5.37202
 C    22 -- C   447       -0.10      5.37202
 C    10 -- C   470       -0.10      5.37202
 C     5 -- C   450       -0.10      5.37202
 C    21 -- C   446       -0.10      5.37202
 C    10 -- C   420       -0.10      5.37202
 C     9 -- C   469       -0.10      5.37202
 C     9 -- C   419       -0.10      5.37202
 C     8 -- C   468       -0.10      5.37202
 C     4 -- C   449       -0.10      5.37202
 C     8 -- C   418       -0.10      5.37202
 C   285 -- C   580       -0.10      5.37202
 C   284 -- C   579       -0.10      5.37202
 C   283 -- C   578       -0.10      5.37202
 C   282 -- C   577       -0.10      5.37202
 C   281 -- C   576       -0.10      5.37202
 C     2 -- C   447       -0.10      5.37202
 C     7 -- C   467       -0.10      5.37202
 C   260 -- C   605       -0.10      5.37202
 C   259 -- C   604       -0.10      5.37202
 C   258 -- C   603       -0.10      5.37202
 C   257 -- C   602       -0.10      5.37202
 C   256 -- C   601       -0.10      5.37202
 C     7 -- C   417       -0.10      5.37202
 C     1 -- C   446       -0.10      5.37202
 C     6 -- C   466       -0.10      5.37202
 C    25 -- C   450       -0.10      5.37202
 C     3 -- C   448       -0.10      5.37202
 C   219 -- C   569       -0.10      5.37202
 C   218 -- C   568       -0.10      5.37202
 C   217 -- C   567       -0.10      5.37202
 C   216 -- C   566       -0.10      5.37202
 C   250 -- C   540       -0.10      5.37202
 C   249 -- C   539       -0.10      5.37202
 C   248 -- C   538       -0.10      5.37202
 C   247 -- C   537       -0.10      5.37202
 C   246 -- C   536       -0.10      5.37202
 C   220 -- C   570       -0.10      5.37202
 C   205 -- C   550       -0.10      5.37202
 C   204 -- C   549       -0.10      5.37202
 C   203 -- C   548       -0.10      5.37202
 C   202 -- C   547       -0.10      5.37202
 C   201 -- C   546       -0.10      5.37202
 C    95 -- C   365       -0.10      5.37202
 C    94 -- C   364       -0.10      5.37202
 C    93 -- C   363       -0.10      5.37202
 C    92 -- C   362       -0.10      5.37202
 C    91 -- C   361       -0.10      5.37202
 C    65 -- C   395       -0.10      5.37202
 C    64 -- C   394       -0.10      5.37202
 C    63 -- C   393       -0.10      5.37202
 C    30 -- C   355       -0.10      5.37202
 C    62 -- C   392       -0.10      5.37202
 C    61 -- C   391       -0.10      5.37202
 C    29 -- C   354       -0.10      5.37202
 C   260 -- C   550       -0.10      5.37202
 C   259 -- C   549       -0.10      5.37202
 C    28 -- C   353       -0.10      5.37202
 C   258 -- C   548       -0.10      5.37202
 C   257 -- C   547       -0.10      5.37202
 C   256 -- C   546       -0.10      5.37202
 C    27 -- C   352       -0.10      5.37202
 C    26 -- C   351       -0.10      5.37202
 C    55 -- C   335       -0.10      5.37202
 C    54 -- C   334       -0.10      5.37202
 C    53 -- C   333       -0.10      5.37202
 C   230 -- C   580       -0.10      5.37202
 C   230 -- C   525       -0.10      5.37202
 C   229 -- C   579       -0.10      5.37202
 C   229 -- C   524       -0.10      5.37202
 C   228 -- C   578       -0.10      5.37202
 C    52 -- C   332       -0.10      5.37202
 C   228 -- C   523       -0.10      5.37202
 C   227 -- C   577       -0.10      5.37202
 C   227 -- C   522       -0.10      5.37202
 C   226 -- C   576       -0.10      5.37202
 C   226 -- C   521       -0.10      5.37202
 C    51 -- C   331       -0.10      5.37202
 C   220 -- C   515       -0.10      5.37202
 C   219 -- C   514       -0.10      5.37202
 C   218 -- C   513       -0.10      5.37202
 C   217 -- C   512       -0.10      5.37202
 C   216 -- C   511       -0.10      5.37202
 C   195 -- C   540       -0.10      5.37202
 C   195 -- C   500       -0.10      5.37202
 C   194 -- C   539       -0.10      5.37202
 C   194 -- C   499       -0.10      5.37202
 C   193 -- C   538       -0.10      5.37202
 C   193 -- C   498       -0.10      5.37202
 C   192 -- C   537       -0.10      5.37202
 C   192 -- C   497       -0.10      5.37202
 C   191 -- C   536       -0.10      5.37202
 C   191 -- C   496       -0.10      5.37202
 C   180 -- C   515       -0.10      5.37202
 C   179 -- C   514       -0.10      5.37202
 C   178 -- C   513       -0.10      5.37202
 C   177 -- C   512       -0.10      5.37202
 C   176 -- C   511       -0.10      5.37202
 C   150 -- C   440       -0.10      5.37202
 C   149 -- C   439       -0.10      5.37202
 C   148 -- C   438       -0.10      5.37202
 C   147 -- C   437       -0.10      5.37202
 C   146 -- C   436       -0.10      5.37202
 C   135 -- C   460       -0.10      5.37202
 C   134 -- C   459       -0.10      5.37202
 C   133 -- C   458       -0.10      5.37202
 C   132 -- C   457       -0.10      5.37202
 C   131 -- C   456       -0.10      5.37202
 C    11 -- C   331       -0.10      5.37202
 C    95 -- C   425       -0.10      5.37202
 C    94 -- C   424       -0.10      5.37202
 C    93 -- C   423       -0.10      5.37202
 C    92 -- C   422       -0.10      5.37202
 C    91 -- C   421       -0.10      5.37202
 C    85 -- C   355       -0.10      5.37202
 C    40 -- C   365       -0.10      5.37202
 C    84 -- C   354       -0.10      5.37202
 C    83 -- C   353       -0.10      5.37202
 C    82 -- C   352       -0.10      5.37202
 C    39 -- C   364       -0.10      5.37202
 C    81 -- C   351       -0.10      5.37202
 C    38 -- C   363       -0.10      5.37202
 C    37 -- C   362       -0.10      5.37202
 C    36 -- C   361       -0.10      5.37202
 C    15 -- C   335       -0.10      5.37202
 C    65 -- C   345       -0.10      5.37202
 C    64 -- C   344       -0.10      5.37202
 C    63 -- C   343       -0.10      5.37202
 C    30 -- C   325       -0.10      5.37202
 C    62 -- C   342       -0.10      5.37202
 C    14 -- C   334       -0.10      5.37202
 C    61 -- C   341       -0.10      5.37202
 C    29 -- C   324       -0.10      5.37202
 C    28 -- C   323       -0.10      5.37202
 C    13 -- C   333       -0.10      5.37202
 C    27 -- C   322       -0.10      5.37202
 C   120 -- C   395       -0.10      5.37202
 C    55 -- C   385       -0.10      5.37202
 C   119 -- C   394       -0.10      5.37202
 C   118 -- C   393       -0.10      5.37202
 C   117 -- C   392       -0.10      5.37202
 C    54 -- C   384       -0.10      5.37202
 C    26 -- C   321       -0.10      5.37202
 C   116 -- C   391       -0.10      5.37202
 C    53 -- C   383       -0.10      5.37202
 C    12 -- C   332       -0.10      5.37202
 C    52 -- C   382       -0.10      5.37202
 C    51 -- C   381       -0.10      5.37202
 C   106 -- C   436       -0.10      5.37202
 C   106 -- C   376       -0.10      5.37202
 C    80 -- C   410       -0.10      5.37202
 C    79 -- C   409       -0.10      5.37202
 C    78 -- C   408       -0.10      5.37202
 C    77 -- C   407       -0.10      5.37202
 C    76 -- C   406       -0.10      5.37202
 C   135 -- C   410       -0.10      5.37202
 C   134 -- C   409       -0.10      5.37202
 C   133 -- C   408       -0.10      5.37202
 C   132 -- C   407       -0.10      5.37202
 C   131 -- C   406       -0.10      5.37202
 C   110 -- C   440       -0.10      5.37202
 C   110 -- C   380       -0.10      5.37202
 C   109 -- C   439       -0.10      5.37202
 C   109 -- C   379       -0.10      5.37202
 C   108 -- C   438       -0.10      5.37202
 C   108 -- C   378       -0.10      5.37202
 C   107 -- C   437       -0.10      5.37202
 C   107 -- C   377       -0.10      5.37202
 C   215 -- C   635       -0.10      5.38000
 C   214 -- C   634       -0.10      5.38000
 C   213 -- C   633       -0.10      5.38000
 C   212 -- C   632       -0.10      5.38000
 C   211 -- C   631       -0.10      5.38000
 C   190 -- C   620       -0.10      5.38000
 C   189 -- C   619       -0.10      5.38000
 C   188 -- C   618       -0.10      5.38000
 C   187 -- C   617       -0.10      5.38000
 C   186 -- C   616       -0.10      5.38000
 C   175 -- C   595       -0.10      5.38000
 C   174 -- C   594       -0.10      5.38000
 C   173 -- C   593       -0.10      5.38000
 C   172 -- C   592       -0.10      5.38000
 C   171 -- C   591       -0.10      5.38000
 C   245 -- C   640       -0.10      5.38000
 C   244 -- C   639       -0.10      5.38000
 C   243 -- C   638       -0.10      5.38000
 C   242 -- C   637       -0.10      5.38000
 C   241 -- C   636       -0.10      5.38000
==================================================


=================== Orbital energy and occupancy information ===================

      Total number of orbitals:    2560
        Occupancy sum (kernel):    1279.999999999
   Occupancy sum (eigenvalues):    1279.999999999
                 HOMO-LUMO gap:       0.064491278 Eh
                 Mid-gap level:       0.243922942 Eh

                        Orbital | Energy (Eh) | Occupancy
                            1    -0.477348335   1.0000000
                        .......   ...........   .........
                         1271     0.206498191   0.9999888
                         1272     0.206507333   0.9999888
                         1273     0.206972541   0.9999870
                         1274     0.206981665   0.9999870
                         1275     0.210198192   0.9999641
                         1276     0.210207361   0.9999640
                         1277     0.210664145   0.9999584
                         1278     0.210673251   0.9999583
                         1279     0.211218495   0.9999504
                         1280     0.211677303   0.9999427
                        ....... -- gap at 0K -- .........
                         1281     0.276168582   0.0000249
                         1282     0.276172197   0.0000249
                         1283     0.276412502   0.0000231
                         1284     0.276416164   0.0000231
                         1285     0.276757386   0.0000207
                         1286     0.276764523   0.0000207
                         1287     0.277014154   0.0000191
                         1288     0.277021140   0.0000191
                         1289     0.277189835   0.0000181
                         1290     0.277223588   0.0000179
                        .......   ...........   .........
                         2560     1.143360507   0.0000000

================================================================================

===================== Writing canonical molecular orbitals =====================
| Orbital  Energy (eV)  Norm     |
| HOMO      5.76003251  1.000000 | Writing "3.488156_GO_manual_4x64graphite_HOMO.cube" ... done
Writing "3.488156_GO_manual_4x64graphite_HOMO.dx" ... done
| LUMO      7.51492949  1.000000 | Writing "3.488156_GO_manual_4x64graphite_LUMO.cube" ... done
Writing "3.488156_GO_manual_4x64graphite_LUMO.dx" ... done
================================================================================
 
===================== Density of States (DOS) calculation ======================
Writing "3.488156_GO_manual_4x64graphite_DOS.txt" ...  done
================================================================================
 
Writing bands to file "3.488156_GO_manual_4x64graphite.val_bands" ... done
 
================ Projected Density of States (pDOS) calculation ================
 
Constructing AM resolved functions  ...... done
Writing NGWF plot files in formats: CUBE DX ...  done
 
Performing overlap integrals ...  done
 
Computing pDOS weights ...  done
 
All bands spilling parameter =   3.56 %
Occupancy-weighted spilling parameter =   0.87 %
 
 => Outputting data for OptaDOS <=
 
Writing pDOS weights to file "3.488156_GO_manual_4x64graphite.val_pdos_bin" ... done
 
Writing band gradients to file "3.488156_GO_manual_4x64graphite.val_dome_bin" ... done
 
Writing Castep output cell file to "3.488156_GO_manual_4x64graphite-out.cell" ... done
 
 => Computing Gaussian smeared pDOS <= 
Writing "3.488156_GO_manual_4x64graphite_PDOS.txt" ...  done
 
 => Computing Occupancy-weighted Gaussian smeared pDOS <= 
Writing "3.488156_GO_manual_4x64graphite_occ_PDOS.txt" ...  done
  => Band centres: 
 S band centre of group 1:  -13.735624 eV
 P band centre of group 1:   -6.665722 eV
  Band centres done. <=
  => Integrated number of electrons in each AM band: 
 S num electrons of group 1:  571.493865
 P num electrons of group 1: 1966.154757
  Integrated number of electrons done. <=
================================================================================

------------------------------ TIMING INFORMATION ------------------------------
AVERAGE TIME:    3553.246s on     40 node(s)                                    
TOTAL TIME:      3553.248s on     40 node(s)                                    
================= AVERAGE TIMINGS FROM ALL NODES (CUMULATIVE) ==================
|| TAG                                    #calls    cpu time   %total  Gflops ||
|| work_imbalance                       :     1        0.00s   0.000%  ------ ||
|| paw_tcore_hartree_on_grid            :     1        0.01s   0.000%  ------ ||
|| paw_tcore_density                    :     1        0.01s   0.000%  ------ ||
|| paw_sphere_density_on_grid           :     1        0.01s   0.000%  ------ ||
|| sparse_set_to_garbage                :   159        0.03s   0.001%  ------ ||
|| paw_dij_hartree                      :   326        0.04s   0.001%  ------ ||
|| pseudo_make_structure_factor         :     1        0.07s   0.002%  ------ ||
|| basis_extract_function_from_box      :  1792        0.08s   0.002%  ------ ||
|| paw_species_calc_proj_prec_mat       :     1        0.12s   0.003%  ------ ||
|| density_init_guess_real              :     1        0.21s   0.006%  ------ ||
|| paw_dataset_init                     :     1        0.25s   0.007%  ------ ||
|| ngwfs_initialise_from_radial         :     2        0.67s   0.019%  ------ ||
|| restart_kernel_write                 :    15        0.91s   0.026%  ------ ||
|| dense_normal_eigensolve              :     1        0.93s   0.026%  ------ ||
|| sparse_init                          :     1        0.95s   0.027%  ------ ||
|| hartree_on_grid                      :   245        1.09s   0.031%  ------ ||
|| projectors_init_fftbox_recip         :   141        2.70s   0.076%  ------ ||
|| ewald_calculate_energy               :     1        2.89s   0.081%  ------ ||
|| fourier_apply_box_pair               :  2656        4.40s   0.124% 559.363 ||
|| basis_copy_function_to_box           : 23232        5.05s   0.142%  ------ ||
|| augmentation_screen_dij              :   250        5.32s   0.150%  ------ ||
|| sw_init                              :     1        6.73s   0.189%  ------ ||
|| sparse_embed_hotelling_invert_embed  :    27        7.46s   0.210%  ------ ||
|| ngwf_gradient_coeffs                 :    14        9.89s   0.278%  ------ ||
|| sparse_trace                         :  2952       13.37s   0.376%  ------ ||
|| fourier_apply_cell_backward          :  7566       13.45s   0.378%  68.888 ||
|| fourier_apply_cell_forward           :  7077       15.07s   0.424%  57.485 ||
|| cell_grid_extract_box_real           :  9772       15.23s   0.429%  ------ ||
|| cell_grid_deposit_box_real           : 31536       19.00s   0.535%  ------ ||
|| paw_dij_xc                           :   326       25.98s   0.731%  ------ ||
|| aug_nonlocal_mat                     :   312       35.93s   1.011%  ------ ||
|| density_fftbox_deposit_to_cell       : 15680       38.05s   1.071%  ------ ||
|| augmentation_density_on_grid         :   245       43.41s   1.222%  ------ ||
|| hamiltonian_energy_components        :     3       46.58s   1.311%  ------ ||
|| eigenstates_pdos                     :     1       53.26s   1.499%  ------ ||
|| function_ops_brappd_ketppd           :    56       53.81s   1.514%  ------ ||
|| eigenstates_calculate                :     1       57.50s   1.618%  ------ ||
|| projectors_func_ovlp_box             :    28       61.32s   1.726%  ------ ||
|| nlxc_vdw_energy                      :   488       69.01s   1.942%  ------ ||
|| xc_energy_potential                  :   244       70.52s   1.985%  ------ ||
|| integrals_kinetic                    :    27       88.51s   2.491%  ------ ||
|| dense_eigensolve                     :   214       99.24s   2.793%  ------ ||
|| properties_calculate                 :     1      104.55s   2.942%  ------ ||
|| potential_apply_to_ngwf_batch        :   304      117.55s   3.308%  ------ ||
|| sparse_product                       :  2992      119.49s   3.363%  ------ ||
|| restart_ngwfs_tightbox_output        :    13      149.47s   4.207%  ------ ||
|| basis_dot_function_with_box          : 7.305M     200.91s   5.654%  ------ ||
|| fourier_apply_box                    : 73296      227.04s   6.390% 979.820 ||
|| edft_diag_ngwf_ham                   :   213      229.89s   6.470%  ------ ||
|| projectors_gradient_batch            :    56      254.27s   7.156%  ------ ||
|| integrals_locpot_mat_els_batch       :   304      254.80s   7.171%  ------ ||
|| density_fftbox_interpolate_multiply  : 15680      304.66s   8.574%  ------ ||
|| projectors_grad_precond_batch        :    56      350.95s   9.877%  ------ ||
|| integrals_locpot_dbl_grid            :    76      373.66s  10.516%  ------ ||
|| density_batch_interp_deposit         :   980      379.16s  10.671%  ------ ||
|| edft_apply_smearing_operator         :   213      452.60s  12.738%  ------ ||
|| basis_add_function_to_box            : 20.81M     552.26s  15.543%  ------ ||
|| ngwf_gradient_build_batch            :    56      647.47s  18.222%  ------ ||
|| density_batch_row_sums               :   980      740.01s  20.826%  ------ ||
|| ngwf_gradient_batch                  :    56      857.75s  24.140%  ------ ||
|| ngwf_gradient_lnv                    :    14      887.32s  24.972%  ------ ||
|| density_on_dbl_grid                  :   245     1130.39s  31.813%  ------ ||
|| hamiltonian_lhxc_calculate           :   240     1227.57s  34.548%  ------ ||
|| edft_calculate                       :    14     2041.90s  57.466%  ------ ||
|| ngwf_cg_optimise                     :     1     3428.69s  96.494%  ------ ||
|| total_time                           :     1     3553.25s 100.000%  ------ ||
================================================================================
Overhead of generating timer report: 
- 0 ms averaging over threads,
- 5 ms ensuring consistency across MPI ranks,
- 0 ms printing in order.

Job completed: 21-02-2020 19:03 (-0000)

