 +---------------------------------------------------------------+
 |                                                               |
 |        ####### #     # ####### ####### ####### ######         |
 |        #     # ##    # #          #    #       #     #        |
 |        #     # # #   # #          #    #       #     #        |
 |        #     # #  #  # #####      #    #####   ######         |
 |        #     # #   # # #          #    #       #              |
 |        #     # #    ## #          #    #       #              |
 |        ####### #     # #######    #    ####### #              |
 |                                                               |
 |        Linear-Scaling Ab Initio Total Energy Program          |
 |                                                               |
 |          Release for academic collaborators of ODG            |
 |                                             Version 5.3.2.12  |
 |                                                               |
 +---------------------------------------------------------------+
 |                                                               |
 |  Authors:                                                     |
 |  Jacek Dziedzic, Peter D. Haynes, Nicholas D. M. Hine,        |
 |  Arash. A. Mostofi, Mike C. Payne and Chris-Kriton Skylaris   |
 |                                                               |
 |  Contributors:                                                |
 |  J. Aarons, L. Andrinopoulos, P. W. Avraam, R. A. Bell,       |
 |  A. Bhandari, G. A. Bramley, R. J. Charlton, S. J. Clark,     |
 |  R. J. Clements, G. C. Constantinescu, F. Corsetti,           |
 |  N. Corsini, O. Dieguez, S. M. M. Dubois, K. K. B. Duff,      |
 |  J. M. Escartin, A. Greco, H. Helal, Q. O. Hill, L. P. Lee,   |
 |  J.-H. Li, E. B. Linscott, G. Moynihan, D. D. O`Regan,        |
 |  O. K. Okan, M. J. S. Phipps, C. J. Pickard,                  |
 |  J. C. A. Prentice, M. I. J. Probert, L. E. Ratcliff,         |
 |  M. Robinson, A. Ruiz Serrano, J. S. Spencer, E. W. Tait,     |
 |  G. Teobaldi, D. Turban, V. Vitale, K. A. Wilkinson,          |
 |  C. Weber, J. C. Womack, N. Yeung and T. J. Zuehlsdorff       |
 |                                                               |
 |                                   Copyright (c) 2004-2020     |
 |                                                               |
 |  Please cite:                                                 |
 |  "Introducing ONETEP: Linear-scaling density functional       |
 |   simulations on parallel computers".                         |
 |   C.-K. Skylaris, P. D. Haynes, A. A. Mostofi, M. C. Payne.   |
 |   J. Chem. Phys. 122 084119 (2005).                           |
 |                                                               |
 |          in all publications arising from your use of ONETEP. |
 |                                                               |
 +---------------------------------------------------------------+
 |                                                               |
 |   ONETEP is based on developments described in the following  |
 |   publications:                                               |
 |                                                               |
 |  "Nonorthogonal generalized Wannier function pseudopotential  |
 |   plane-wave method".                                         |
 |   C.-K. Skylaris, A. A. Mostofi, P. D. Haynes, O. Dieguez,    |
 |   M. C. Payne.                                                |
 |   Phys. Rev. B 66 035119 (2002).                              |
 |                                                               |
 |  "Preconditioned iterative minimization for linear-scaling    |
 |   electronic structure calculations".                         |
 |   A. A. Mostofi, P. D. Haynes, C.-K. Skylaris, M. C. Payne.   |
 |   J. Chem. Phys. 119(17), pp.8842-8848 (2003).                |
 |                                                               |
 |  "Total-energy calculations on a real space grid with         |
 |   localized functions and a plane-wave basis".                |
 |   A. A. Mostofi, C.-K. Skylaris, P. D. Haynes, M. C. Payne.   |
 |   Comput. Phys. Commun. 147, pp.788-802 (2002).               |
 |                                                               |
 |  "Accurate kinetic energy evaluation in electronic structure  |
 |   calculations with localized functions on real space grids"  |
 |   C.-K. Skylaris, A. A. Mostofi, P. D. Haynes, C. J. Pickard, |
 |   M. C. Payne.                                                |
 |   Comput. Phys. Commun. 140, pp.315-322 (2001).               |
 |                                                               |
 |  "Accurate ionic forces and geometry optimization in linear-  |
 |   scaling density-functional theory with local orbitals"      |
 |   N. D. M. Hine, M. Robinson, P. D. Haynes, C.-K. Skylaris,   |
 |   M. C. Payne, and A. A. Mostofi.                             |
 |   Phys. Rev. B 83 195102 (2011).                              |
 |                                                               |
 +---------------------------------------------------------------+

Job started: 29-02-2020 06:16 (-0000)
 
Reading parameters from file "3.8369616_GO_manual_4x64graphite.dat" ...

WARNING: "cutoff_energy" not specified, but "psinc_spacing" specified.
         Using the latter to set the KE cutoff energy to  732.32021eV,
         thus *overriding* the default.

... done

If your calculation crashes here, before "Checking processes and threads..."
is displayed, then your stack size is insufficient.
If so, use "ulimit -s unlimited" at runtime.
You can disable this check with "check_stack_size F".

Checking processes and threads...
   Determining the default number of threads...
      No default threads set at compilation time: defaulting to 1.
      OpenMP library call suggests 4 threads.
      Hybrid MPI-OpenMP compilation detected.
      Number of MPI processes > 1.
      OMP_NUM_THREADS environment variable present and
      its value matches the one obtained from the OpenMP library call.
      Using this value as default.
      Default threads: 4
      Default applies to threads_max and threads_num_fftboxes.
      Settings in the input file override this default.
   ... done

   Running with 40 MPI processes.
   There are 10 MPI processes running on the same node as the root process.
   Each MPI process is using: 
               1 threads for simulation cell FFTs.
               1 threads for parallel FFT box operations.
               4 threads for loops over batched FFT box operations.
               4 threads in other parallel regions.
... done

Basic input checks...
Resetting ngwf_cg_rotate to TRUE for EDFT calculations
... done

Reading geometry and species blocks from file "3.8369616_GO_manual_4x64graphite.dat" ...
    
  PSINC grid spacing along a1 set to   0.511215680000a0 from input file.
  PSINC grid spacing along a2 set to   0.531284090000a0 from input file.
  PSINC grid spacing along a3 set to   0.507050450000a0 from input file.
  Number of PPD points along a3 set to 1.  This is 
  the default value, it may have been provided also in the input file.
... done
 Writing xyz coordinates to file "3.8369616_GO_manual_4x64graphite.xyz" ... done


--------------------------------------------------------------------------------
---------------------------------- INPUT FILE ----------------------------------
--------------------------------------------------------------------------------

task : singlepoint                                                              
do_properties : true                                                            
dx_format T                                                                     
edft T                                                                          
output_detail VERBOSE                                                           
write_xyz T                                                                     
xc_functional AVV10S                                                            
PSINC_SPACING 0.51121568 0.53128409 0.50705045                                  
paw T                                                                           
pdos_max_l = 2                                                                  
dos_smear  0.1 eV                                                               
popn_calculate T                                                                
PDOS_PSEUDOATOMIC T                                                             
PDOS_REDUCE_SWS F                                                               
PDOS_CONSTRUCT_BASIS F                                                          
PDOS_LOWDIN T                                                                   
PDOS_ORTH_ATOM_BLOCKS F                                                         
PDOS_LCAO_OPTIMIZE F                                                            
pdos_optados_output T                                                           
homo_plot 0                                                                     
lumo_plot 0                                                                     
homo_dens_plot -1                                                               
lumo_dens_plot -1                                                               
%BLOCK SPECIES                                                                  
C C 6 4 9.0                                                                     
%ENDBLOCK SPECIES                                                               
%BLOCK SPECIES_POT                                                              
C "~/pp/paw/c_pbe_abinit.paw"                                                   
%ENDBLOCK SPECIES_POT                                                           
%BLOCK SPECIES_ATOMIC_SET                                                       
C "SOLVE conf=2s2 2p2"                                                          
%ENDBLOCK SPECIES_ATOMIC_SET                                                    
%BLOCK LATTICE_CART                                                             
32.21  0.00  0.00                                                               
0.00 18.59  0.00                                                                
0.00  0.00 72.51                                                                
%ENDBLOCK LATTICE_CART                                                          
%BLOCK POSITIONS_ABS                                                            
C  0.00  0.00  3.63                                                             
C  0.00  0.00 18.13                                                             
C  0.00  0.00 32.63                                                             
C  0.00  0.00 47.13                                                             
C  0.00  0.00 61.63                                                             
C  0.00  4.65  3.63                                                             
C  0.00  4.65 18.13                                                             
C  0.00  4.65 32.63                                                             
C  0.00  4.65 47.13                                                             
C  0.00  4.65 61.63                                                             
C  4.03  2.32  3.63                                                             
C  4.03  2.32 18.13                                                             
C  4.03  2.32 32.63                                                             
C  4.03  2.32 47.13                                                             
C  4.03  2.32 61.63                                                             
C  8.05  0.00  3.63                                                             
C  8.05  0.00 18.13                                                             
C  8.05  0.00 32.63                                                             
C  8.05  0.00 47.13                                                             
C  8.05  0.00 61.63                                                             
C  0.00  9.30  3.63                                                             
C  0.00  9.30 18.13                                                             
C  0.00  9.30 32.63                                                             
C  0.00  9.30 47.13                                                             
C  0.00  9.30 61.63                                                             
C  4.03  6.97  3.63                                                             
C  4.03  6.97 18.13                                                             
C  4.03  6.97 32.63                                                             
C  4.03  6.97 47.13                                                             
C  4.03  6.97 61.63                                                             
C  8.05  4.65  3.63                                                             
C  8.05  4.65 18.13                                                             
C  8.05  4.65 32.63                                                             
C  8.05  4.65 47.13                                                             
C  8.05  4.65 61.63                                                             
C 12.08  2.32  3.63                                                             
C 12.08  2.32 18.13                                                             
C 12.08  2.32 32.63                                                             
C 12.08  2.32 47.13                                                             
C 12.08  2.32 61.63                                                             
C 16.10  0.00  3.63                                                             
C 16.10  0.00 18.13                                                             
C 16.10  0.00 32.63                                                             
C 16.10  0.00 47.13                                                             
C 16.10  0.00 61.63                                                             
C  0.00 13.95  3.63                                                             
C  0.00 13.95 18.13                                                             
C  0.00 13.95 32.63                                                             
C  0.00 13.95 47.13                                                             
C  0.00 13.95 61.63                                                             
C  4.03 11.62  3.63                                                             
C  4.03 11.62 18.13                                                             
C  4.03 11.62 32.63                                                             
C  4.03 11.62 47.13                                                             
C  4.03 11.62 61.63                                                             
C  8.05  9.30  3.63                                                             
C  8.05  9.30 18.13                                                             
C  8.05  9.30 32.63                                                             
C  8.05  9.30 47.13                                                             
C  8.05  9.30 61.63                                                             
C 12.08  6.97  3.63                                                             
C 12.08  6.97 18.13                                                             
C 12.08  6.97 32.63                                                             
C 12.08  6.97 47.13                                                             
C 12.08  6.97 61.63                                                             
C 16.10  4.65  3.63                                                             
C 16.10  4.65 18.13                                                             
C 16.10  4.65 32.63                                                             
C 16.10  4.65 47.13                                                             
C 16.10  4.65 61.63                                                             
C 20.13  2.32  3.63                                                             
C 20.13  2.32 18.13                                                             
C 20.13  2.32 32.63                                                             
C 20.13  2.32 47.13                                                             
C 20.13  2.32 61.63                                                             
C 24.16  0.00  3.63                                                             
C 24.16  0.00 18.13                                                             
C 24.16  0.00 32.63                                                             
C 24.16  0.00 47.13                                                             
C 24.16  0.00 61.63                                                             
C  4.03 16.27  3.63                                                             
C  4.03 16.27 18.13                                                             
C  4.03 16.27 32.63                                                             
C  4.03 16.27 47.13                                                             
C  4.03 16.27 61.63                                                             
C  8.05 13.95  3.63                                                             
C  8.05 13.95 18.13                                                             
C  8.05 13.95 32.63                                                             
C  8.05 13.95 47.13                                                             
C  8.05 13.95 61.63                                                             
C 12.08 11.62  3.63                                                             
C 12.08 11.62 18.13                                                             
C 12.08 11.62 32.63                                                             
C 12.08 11.62 47.13                                                             
C 12.08 11.62 61.63                                                             
C 16.10  9.30  3.63                                                             
C 16.10  9.30 18.13                                                             
C 16.10  9.30 32.63                                                             
C 16.10  9.30 47.13                                                             
C 16.10  9.30 61.63                                                             
C 20.13  6.97  3.63                                                             
C 20.13  6.97 18.13                                                             
C 20.13  6.97 32.63                                                             
C 20.13  6.97 47.13                                                             
C 20.13  6.97 61.63                                                             
C 24.16  4.65  3.63                                                             
C 24.16  4.65 18.13                                                             
C 24.16  4.65 32.63                                                             
C 24.16  4.65 47.13                                                             
C 24.16  4.65 61.63                                                             
C 28.18  2.32  3.63                                                             
C 28.18  2.32 18.13                                                             
C 28.18  2.32 32.63                                                             
C 28.18  2.32 47.13                                                             
C 28.18  2.32 61.63                                                             
C 12.08 16.27  3.63                                                             
C 12.08 16.27 18.13                                                             
C 12.08 16.27 32.63                                                             
C 12.08 16.27 47.13                                                             
C 12.08 16.27 61.63                                                             
C 16.10 13.95  3.63                                                             
C 16.10 13.95 18.13                                                             
C 16.10 13.95 32.63                                                             
C 16.10 13.95 47.13                                                             
C 16.10 13.95 61.63                                                             
C 20.13 11.62  3.63                                                             
C 20.13 11.62 18.13                                                             
C 20.13 11.62 32.63                                                             
C 20.13 11.62 47.13                                                             
C 20.13 11.62 61.63                                                             
C 24.16  9.30  3.63                                                             
C 24.16  9.30 18.13                                                             
C 24.16  9.30 32.63                                                             
C 24.16  9.30 47.13                                                             
C 24.16  9.30 61.63                                                             
C 28.18  6.97  3.63                                                             
C 28.18  6.97 18.13                                                             
C 28.18  6.97 32.63                                                             
C 28.18  6.97 47.13                                                             
C 28.18  6.97 61.63                                                             
C 20.13 16.27  3.63                                                             
C 20.13 16.27 18.13                                                             
C 20.13 16.27 32.63                                                             
C 20.13 16.27 47.13                                                             
C 20.13 16.27 61.63                                                             
C 24.16 13.95  3.63                                                             
C 24.16 13.95 18.13                                                             
C 24.16 13.95 32.63                                                             
C 24.16 13.95 47.13                                                             
C 24.16 13.95 61.63                                                             
C 28.18 11.62  3.63                                                             
C 28.18 11.62 18.13                                                             
C 28.18 11.62 32.63                                                             
C 28.18 11.62 47.13                                                             
C 28.18 11.62 61.63                                                             
C 28.18 16.27  3.63                                                             
C 28.18 16.27 18.13                                                             
C 28.18 16.27 32.63                                                             
C 28.18 16.27 47.13                                                             
C 28.18 16.27 61.63                                                             
C  0.00  0.00 10.88                                                             
C  0.00  0.00 25.38                                                             
C  0.00  0.00 39.88                                                             
C  0.00  0.00 54.38                                                             
C  0.00  0.00 68.88                                                             
C  0.00  4.65 10.88                                                             
C  0.00  4.65 25.38                                                             
C  0.00  4.65 39.88                                                             
C  0.00  4.65 54.38                                                             
C  0.00  4.65 68.88                                                             
C  4.03  2.32 10.88                                                             
C  4.03  2.32 25.38                                                             
C  4.03  2.32 39.88                                                             
C  4.03  2.32 54.38                                                             
C  4.03  2.32 68.88                                                             
C  8.05  0.00 10.88                                                             
C  8.05  0.00 25.38                                                             
C  8.05  0.00 39.88                                                             
C  8.05  0.00 54.38                                                             
C  8.05  0.00 68.88                                                             
C  0.00  9.30 10.88                                                             
C  0.00  9.30 25.38                                                             
C  0.00  9.30 39.88                                                             
C  0.00  9.30 54.38                                                             
C  0.00  9.30 68.88                                                             
C  4.03  6.97 10.88                                                             
C  4.03  6.97 25.38                                                             
C  4.03  6.97 39.88                                                             
C  4.03  6.97 54.38                                                             
C  4.03  6.97 68.88                                                             
C  8.05  4.65 10.88                                                             
C  8.05  4.65 25.38                                                             
C  8.05  4.65 39.88                                                             
C  8.05  4.65 54.38                                                             
C  8.05  4.65 68.88                                                             
C 12.08  2.32 10.88                                                             
C 12.08  2.32 25.38                                                             
C 12.08  2.32 39.88                                                             
C 12.08  2.32 54.38                                                             
C 12.08  2.32 68.88                                                             
C 16.10  0.00 10.88                                                             
C 16.10  0.00 25.38                                                             
C 16.10  0.00 39.88                                                             
C 16.10  0.00 54.38                                                             
C 16.10  0.00 68.88                                                             
C  0.00 13.95 10.88                                                             
C  0.00 13.95 25.38                                                             
C  0.00 13.95 39.88                                                             
C  0.00 13.95 54.38                                                             
C  0.00 13.95 68.88                                                             
C  4.03 11.62 10.88                                                             
C  4.03 11.62 25.38                                                             
C  4.03 11.62 39.88                                                             
C  4.03 11.62 54.38                                                             
C  4.03 11.62 68.88                                                             
C  8.05  9.30 10.88                                                             
C  8.05  9.30 25.38                                                             
C  8.05  9.30 39.88                                                             
C  8.05  9.30 54.38                                                             
C  8.05  9.30 68.88                                                             
C 12.08  6.97 10.88                                                             
C 12.08  6.97 25.38                                                             
C 12.08  6.97 39.88                                                             
C 12.08  6.97 54.38                                                             
C 12.08  6.97 68.88                                                             
C 16.10  4.65 10.88                                                             
C 16.10  4.65 25.38                                                             
C 16.10  4.65 39.88                                                             
C 16.10  4.65 54.38                                                             
C 16.10  4.65 68.88                                                             
C 20.13  2.32 10.88                                                             
C 20.13  2.32 25.38                                                             
C 20.13  2.32 39.88                                                             
C 20.13  2.32 54.38                                                             
C 20.13  2.32 68.88                                                             
C 24.16  0.00 10.88                                                             
C 24.16  0.00 25.38                                                             
C 24.16  0.00 39.88                                                             
C 24.16  0.00 54.38                                                             
C 24.16  0.00 68.88                                                             
C  4.03 16.27 10.88                                                             
C  4.03 16.27 25.38                                                             
C  4.03 16.27 39.88                                                             
C  4.03 16.27 54.38                                                             
C  4.03 16.27 68.88                                                             
C  8.05 13.95 10.88                                                             
C  8.05 13.95 25.38                                                             
C  8.05 13.95 39.88                                                             
C  8.05 13.95 54.38                                                             
C  8.05 13.95 68.88                                                             
C 12.08 11.62 10.88                                                             
C 12.08 11.62 25.38                                                             
C 12.08 11.62 39.88                                                             
C 12.08 11.62 54.38                                                             
C 12.08 11.62 68.88                                                             
C 16.10  9.30 10.88                                                             
C 16.10  9.30 25.38                                                             
C 16.10  9.30 39.88                                                             
C 16.10  9.30 54.38                                                             
C 16.10  9.30 68.88                                                             
C 20.13  6.97 10.88                                                             
C 20.13  6.97 25.38                                                             
C 20.13  6.97 39.88                                                             
C 20.13  6.97 54.38                                                             
C 20.13  6.97 68.88                                                             
C 24.16  4.65 10.88                                                             
C 24.16  4.65 25.38                                                             
C 24.16  4.65 39.88                                                             
C 24.16  4.65 54.38                                                             
C 24.16  4.65 68.88                                                             
C 28.18  2.32 10.88                                                             
C 28.18  2.32 25.38                                                             
C 28.18  2.32 39.88                                                             
C 28.18  2.32 54.38                                                             
C 28.18  2.32 68.88                                                             
C 12.08 16.27 10.88                                                             
C 12.08 16.27 25.38                                                             
C 12.08 16.27 39.88                                                             
C 12.08 16.27 54.38                                                             
C 12.08 16.27 68.88                                                             
C 16.10 13.95 10.88                                                             
C 16.10 13.95 25.38                                                             
C 16.10 13.95 39.88                                                             
C 16.10 13.95 54.38                                                             
C 16.10 13.95 68.88                                                             
C 20.13 11.62 10.88                                                             
C 20.13 11.62 25.38                                                             
C 20.13 11.62 39.88                                                             
C 20.13 11.62 54.38                                                             
C 20.13 11.62 68.88                                                             
C 24.16  9.30 10.88                                                             
C 24.16  9.30 25.38                                                             
C 24.16  9.30 39.88                                                             
C 24.16  9.30 54.38                                                             
C 24.16  9.30 68.88                                                             
C 28.18  6.97 10.88                                                             
C 28.18  6.97 25.38                                                             
C 28.18  6.97 39.88                                                             
C 28.18  6.97 54.38                                                             
C 28.18  6.97 68.88                                                             
C 20.13 16.27 10.88                                                             
C 20.13 16.27 25.38                                                             
C 20.13 16.27 39.88                                                             
C 20.13 16.27 54.38                                                             
C 20.13 16.27 68.88                                                             
C 24.16 13.95 10.88                                                             
C 24.16 13.95 25.38                                                             
C 24.16 13.95 39.88                                                             
C 24.16 13.95 54.38                                                             
C 24.16 13.95 68.88                                                             
C 28.18 11.62 10.88                                                             
C 28.18 11.62 25.38                                                             
C 28.18 11.62 39.88                                                             
C 28.18 11.62 54.38                                                             
C 28.18 11.62 68.88                                                             
C 28.18 16.27 10.88                                                             
C 28.18 16.27 25.38                                                             
C 28.18 16.27 39.88                                                             
C 28.18 16.27 54.38                                                             
C 28.18 16.27 68.88                                                             
C  1.34  2.32  3.63                                                             
C  1.34  2.32 18.13                                                             
C  1.34  2.32 32.63                                                             
C  1.34  2.32 47.13                                                             
C  1.34  2.32 61.63                                                             
C  5.37  0.00  3.63                                                             
C  5.37  0.00 18.13                                                             
C  5.37  0.00 32.63                                                             
C  5.37  0.00 47.13                                                             
C  5.37  0.00 61.63                                                             
C  1.34  6.97  3.63                                                             
C  1.34  6.97 18.13                                                             
C  1.34  6.97 32.63                                                             
C  1.34  6.97 47.13                                                             
C  1.34  6.97 61.63                                                             
C  5.37  4.65  3.63                                                             
C  5.37  4.65 18.13                                                             
C  5.37  4.65 32.63                                                             
C  5.37  4.65 47.13                                                             
C  5.37  4.65 61.63                                                             
C  9.39  2.32  3.63                                                             
C  9.39  2.32 18.13                                                             
C  9.39  2.32 32.63                                                             
C  9.39  2.32 47.13                                                             
C  9.39  2.32 61.63                                                             
C 13.42  0.00  3.63                                                             
C 13.42  0.00 18.13                                                             
C 13.42  0.00 32.63                                                             
C 13.42  0.00 47.13                                                             
C 13.42  0.00 61.63                                                             
C  1.34 11.62  3.63                                                             
C  1.34 11.62 18.13                                                             
C  1.34 11.62 32.63                                                             
C  1.34 11.62 47.13                                                             
C  1.34 11.62 61.63                                                             
C  5.37  9.30  3.63                                                             
C  5.37  9.30 18.13                                                             
C  5.37  9.30 32.63                                                             
C  5.37  9.30 47.13                                                             
C  5.37  9.30 61.63                                                             
C  9.39  6.97  3.63                                                             
C  9.39  6.97 18.13                                                             
C  9.39  6.97 32.63                                                             
C  9.39  6.97 47.13                                                             
C  9.39  6.97 61.63                                                             
C 13.42  4.65  3.63                                                             
C 13.42  4.65 18.13                                                             
C 13.42  4.65 32.63                                                             
C 13.42  4.65 47.13                                                             
C 13.42  4.65 61.63                                                             
C 17.45  2.32  3.63                                                             
C 17.45  2.32 18.13                                                             
C 17.45  2.32 32.63                                                             
C 17.45  2.32 47.13                                                             
C 17.45  2.32 61.63                                                             
C 21.47  0.00  3.63                                                             
C 21.47  0.00 18.13                                                             
C 21.47  0.00 32.63                                                             
C 21.47  0.00 47.13                                                             
C 21.47  0.00 61.63                                                             
C  1.34 16.27  3.63                                                             
C  1.34 16.27 18.13                                                             
C  1.34 16.27 32.63                                                             
C  1.34 16.27 47.13                                                             
C  1.34 16.27 61.63                                                             
C  5.37 13.95  3.63                                                             
C  5.37 13.95 18.13                                                             
C  5.37 13.95 32.63                                                             
C  5.37 13.95 47.13                                                             
C  5.37 13.95 61.63                                                             
C  9.39 11.62  3.63                                                             
C  9.39 11.62 18.13                                                             
C  9.39 11.62 32.63                                                             
C  9.39 11.62 47.13                                                             
C  9.39 11.62 61.63                                                             
C 13.42  9.30  3.63                                                             
C 13.42  9.30 18.13                                                             
C 13.42  9.30 32.63                                                             
C 13.42  9.30 47.13                                                             
C 13.42  9.30 61.63                                                             
C 17.45  6.97  3.63                                                             
C 17.45  6.97 18.13                                                             
C 17.45  6.97 32.63                                                             
C 17.45  6.97 47.13                                                             
C 17.45  6.97 61.63                                                             
C 21.47  4.65  3.63                                                             
C 21.47  4.65 18.13                                                             
C 21.47  4.65 32.63                                                             
C 21.47  4.65 47.13                                                             
C 21.47  4.65 61.63                                                             
C 25.50  2.32  3.63                                                             
C 25.50  2.32 18.13                                                             
C 25.50  2.32 32.63                                                             
C 25.50  2.32 47.13                                                             
C 25.50  2.32 61.63                                                             
C 29.52  0.00  3.63                                                             
C 29.52  0.00 18.13                                                             
C 29.52  0.00 32.63                                                             
C 29.52  0.00 47.13                                                             
C 29.52  0.00 61.63                                                             
C  9.39 16.27  3.63                                                             
C  9.39 16.27 18.13                                                             
C  9.39 16.27 32.63                                                             
C  9.39 16.27 47.13                                                             
C  9.39 16.27 61.63                                                             
C 13.42 13.95  3.63                                                             
C 13.42 13.95 18.13                                                             
C 13.42 13.95 32.63                                                             
C 13.42 13.95 47.13                                                             
C 13.42 13.95 61.63                                                             
C 17.45 11.62  3.63                                                             
C 17.45 11.62 18.13                                                             
C 17.45 11.62 32.63                                                             
C 17.45 11.62 47.13                                                             
C 17.45 11.62 61.63                                                             
C 21.47  9.30  3.63                                                             
C 21.47  9.30 18.13                                                             
C 21.47  9.30 32.63                                                             
C 21.47  9.30 47.13                                                             
C 21.47  9.30 61.63                                                             
C 25.50  6.97  3.63                                                             
C 25.50  6.97 18.13                                                             
C 25.50  6.97 32.63                                                             
C 25.50  6.97 47.13                                                             
C 25.50  6.97 61.63                                                             
C 29.52  4.65  3.63                                                             
C 29.52  4.65 18.13                                                             
C 29.52  4.65 32.63                                                             
C 29.52  4.65 47.13                                                             
C 29.52  4.65 61.63                                                             
C 17.45 16.27  3.63                                                             
C 17.45 16.27 18.13                                                             
C 17.45 16.27 32.63                                                             
C 17.45 16.27 47.13                                                             
C 17.45 16.27 61.63                                                             
C 21.47 13.95  3.63                                                             
C 21.47 13.95 18.13                                                             
C 21.47 13.95 32.63                                                             
C 21.47 13.95 47.13                                                             
C 21.47 13.95 61.63                                                             
C 25.50 11.62  3.63                                                             
C 25.50 11.62 18.13                                                             
C 25.50 11.62 32.63                                                             
C 25.50 11.62 47.13                                                             
C 25.50 11.62 61.63                                                             
C 29.52  9.30  3.63                                                             
C 29.52  9.30 18.13                                                             
C 29.52  9.30 32.63                                                             
C 29.52  9.30 47.13                                                             
C 29.52  9.30 61.63                                                             
C 25.50 16.27  3.63                                                             
C 25.50 16.27 18.13                                                             
C 25.50 16.27 32.63                                                             
C 25.50 16.27 47.13                                                             
C 25.50 16.27 61.63                                                             
C 29.52 13.95  3.63                                                             
C 29.52 13.95 18.13                                                             
C 29.52 13.95 32.63                                                             
C 29.52 13.95 47.13                                                             
C 29.52 13.95 61.63                                                             
C  2.68  0.00 10.88                                                             
C  2.68  0.00 25.38                                                             
C  2.68  0.00 39.88                                                             
C  2.68  0.00 54.38                                                             
C  2.68  0.00 68.88                                                             
C  2.68  4.65 10.88                                                             
C  2.68  4.65 25.38                                                             
C  2.68  4.65 39.88                                                             
C  2.68  4.65 54.38                                                             
C  2.68  4.65 68.88                                                             
C  6.71  2.32 10.88                                                             
C  6.71  2.32 25.38                                                             
C  6.71  2.32 39.88                                                             
C  6.71  2.32 54.38                                                             
C  6.71  2.32 68.88                                                             
C 10.74  0.00 10.88                                                             
C 10.74  0.00 25.38                                                             
C 10.74  0.00 39.88                                                             
C 10.74  0.00 54.38                                                             
C 10.74  0.00 68.88                                                             
C  2.68  9.30 10.88                                                             
C  2.68  9.30 25.38                                                             
C  2.68  9.30 39.88                                                             
C  2.68  9.30 54.38                                                             
C  2.68  9.30 68.88                                                             
C  6.71  6.97 10.88                                                             
C  6.71  6.97 25.38                                                             
C  6.71  6.97 39.88                                                             
C  6.71  6.97 54.38                                                             
C  6.71  6.97 68.88                                                             
C 10.74  4.65 10.88                                                             
C 10.74  4.65 25.38                                                             
C 10.74  4.65 39.88                                                             
C 10.74  4.65 54.38                                                             
C 10.74  4.65 68.88                                                             
C 14.76  2.32 10.88                                                             
C 14.76  2.32 25.38                                                             
C 14.76  2.32 39.88                                                             
C 14.76  2.32 54.38                                                             
C 14.76  2.32 68.88                                                             
C 18.79  0.00 10.88                                                             
C 18.79  0.00 25.38                                                             
C 18.79  0.00 39.88                                                             
C 18.79  0.00 54.38                                                             
C 18.79  0.00 68.88                                                             
C  2.68 13.95 10.88                                                             
C  2.68 13.95 25.38                                                             
C  2.68 13.95 39.88                                                             
C  2.68 13.95 54.38                                                             
C  2.68 13.95 68.88                                                             
C  6.71 11.62 10.88                                                             
C  6.71 11.62 25.38                                                             
C  6.71 11.62 39.88                                                             
C  6.71 11.62 54.38                                                             
C  6.71 11.62 68.88                                                             
C 10.74  9.30 10.88                                                             
C 10.74  9.30 25.38                                                             
C 10.74  9.30 39.88                                                             
C 10.74  9.30 54.38                                                             
C 10.74  9.30 68.88                                                             
C 14.76  6.97 10.88                                                             
C 14.76  6.97 25.38                                                             
C 14.76  6.97 39.88                                                             
C 14.76  6.97 54.38                                                             
C 14.76  6.97 68.88                                                             
C 18.79  4.65 10.88                                                             
C 18.79  4.65 25.38                                                             
C 18.79  4.65 39.88                                                             
C 18.79  4.65 54.38                                                             
C 18.79  4.65 68.88                                                             
C 22.81  2.32 10.88                                                             
C 22.81  2.32 25.38                                                             
C 22.81  2.32 39.88                                                             
C 22.81  2.32 54.38                                                             
C 22.81  2.32 68.88                                                             
C 26.84  0.00 10.88                                                             
C 26.84  0.00 25.38                                                             
C 26.84  0.00 39.88                                                             
C 26.84  0.00 54.38                                                             
C 26.84  0.00 68.88                                                             
C  6.71 16.27 10.88                                                             
C  6.71 16.27 25.38                                                             
C  6.71 16.27 39.88                                                             
C  6.71 16.27 54.38                                                             
C  6.71 16.27 68.88                                                             
C 10.74 13.95 10.88                                                             
C 10.74 13.95 25.38                                                             
C 10.74 13.95 39.88                                                             
C 10.74 13.95 54.38                                                             
C 10.74 13.95 68.88                                                             
C 14.76 11.62 10.88                                                             
C 14.76 11.62 25.38                                                             
C 14.76 11.62 39.88                                                             
C 14.76 11.62 54.38                                                             
C 14.76 11.62 68.88                                                             
C 18.79  9.30 10.88                                                             
C 18.79  9.30 25.38                                                             
C 18.79  9.30 39.88                                                             
C 18.79  9.30 54.38                                                             
C 18.79  9.30 68.88                                                             
C 22.81  6.97 10.88                                                             
C 22.81  6.97 25.38                                                             
C 22.81  6.97 39.88                                                             
C 22.81  6.97 54.38                                                             
C 22.81  6.97 68.88                                                             
C 26.84  4.65 10.88                                                             
C 26.84  4.65 25.38                                                             
C 26.84  4.65 39.88                                                             
C 26.84  4.65 54.38                                                             
C 26.84  4.65 68.88                                                             
C 30.86  2.32 10.88                                                             
C 30.86  2.32 25.38                                                             
C 30.86  2.32 39.88                                                             
C 30.86  2.32 54.38                                                             
C 30.86  2.32 68.88                                                             
C 14.76 16.27 10.88                                                             
C 14.76 16.27 25.38                                                             
C 14.76 16.27 39.88                                                             
C 14.76 16.27 54.38                                                             
C 14.76 16.27 68.88                                                             
C 18.79 13.95 10.88                                                             
C 18.79 13.95 25.38                                                             
C 18.79 13.95 39.88                                                             
C 18.79 13.95 54.38                                                             
C 18.79 13.95 68.88                                                             
C 22.81 11.62 10.88                                                             
C 22.81 11.62 25.38                                                             
C 22.81 11.62 39.88                                                             
C 22.81 11.62 54.38                                                             
C 22.81 11.62 68.88                                                             
C 26.84  9.30 10.88                                                             
C 26.84  9.30 25.38                                                             
C 26.84  9.30 39.88                                                             
C 26.84  9.30 54.38                                                             
C 26.84  9.30 68.88                                                             
C 30.86  6.97 10.88                                                             
C 30.86  6.97 25.38                                                             
C 30.86  6.97 39.88                                                             
C 30.86  6.97 54.38                                                             
C 30.86  6.97 68.88                                                             
C 22.81 16.27 10.88                                                             
C 22.81 16.27 25.38                                                             
C 22.81 16.27 39.88                                                             
C 22.81 16.27 54.38                                                             
C 22.81 16.27 68.88                                                             
C 26.84 13.95 10.88                                                             
C 26.84 13.95 25.38                                                             
C 26.84 13.95 39.88                                                             
C 26.84 13.95 54.38                                                             
C 26.84 13.95 68.88                                                             
C 30.86 11.62 10.88                                                             
C 30.86 11.62 25.38                                                             
C 30.86 11.62 39.88                                                             
C 30.86 11.62 54.38                                                             
C 30.86 11.62 68.88                                                             
C 30.86 16.27 10.88                                                             
C 30.86 16.27 25.38                                                             
C 30.86 16.27 39.88                                                             
C 30.86 16.27 54.38                                                             
C 30.86 16.27 68.88                                                             
%ENDBLOCK POSITIONS_ABS                                                         

--------------------------------------------------------------------------------
-------------------------------- END INPUT FILE --------------------------------
--------------------------------------------------------------------------------


 
<<<<<<<<<<<<<<<<<<<<<<<<<<<<<<<<< Full system >>>>>>>>>>>>>>>>>>>>>>>>>>>>>>>>>>
<<<<<<<<<<<<<<<<<<<<<<<<<<< PAW Dataset information >>>>>>>>>>>>>>>>>>>>>>>>>>>
File: ~/pp/paw/c_pbe_abinit.paw; rc = 1.25 bohr; shape type =  3; rshape = 1.25 bohr;
  Atomic number:  6;  ionic charge:  4.000000
    Partial Wave 1: l = 0
    Partial Wave 2: l = 0
    Partial Wave 3: l = 1
    Partial Wave 4: l = 1
  Core charge supplied for Nonlinear Core Corrections
<<<<<<<<<<<<<<<<<<<<<<<<<<<<<<<<<<<<<<< >>>>>>>>>>>>>>>>>>>>>>>>>>>>>>>>>>>>>>>

-------------------------- Atom counting information ---------------------------
Symbol    Natoms    Nngwfs    Nprojs
  C        640      2560      5120
.......   ......    ......    ......
Totals:    640      2560      5120
--------------------------------------------------------------------------------

=============================== PSINC grid sizes ===============================
                      Simulation cell:   63 x  35 x 143
                              FFT-box:   63 x  35 x 117
                                  PPD:    7 x   5 x   1
Grid space d1=  0.511269841270a0 (KE cutoff=  29.06054Eh = 790.77748eV)
Grid space d2=  0.531142857143a0 (KE cutoff=  26.92659Eh = 732.70972eV)
Grid space d3=  0.507062937063a0 (KE cutoff=  29.54475Eh = 803.95346eV)
================================================================================
  
WARNING in cell_grid_distribute:
Average of less than one 23-slab per node, so workload cannot be
equally balanced between nodes.

********************* Fourier parallelisation information **********************
       Coarse grid (whole simulation cell) dimensions:     63    35   143
          Real-space ('12') slabs/node (min max mean):      3     4     3
         Recip-space ('23') slabs/node (min max mean):      0     1     0
********************************************************************************

********************* Fourier parallelisation information **********************
       Double grid (whole simulation cell) dimensions:    126    70   286
          Real-space ('12') slabs/node (min max mean):      7     8     7
         Recip-space ('23') slabs/node (min max mean):      1     2     1
********************************************************************************

Atom SCF Calculation for C  : Z (AE atom) =   6 : Z (PS atom) =   4
Config String: 2s2 2p2
Orbitals (num,occ):  2     2.00 2.00
Orbitals   (num,l):  2        0    1
Real-space Grid (nr,dr,rmax): 1293    0.0069659443    9.0000000000
Spherical Bessel Basis (nsws,lmax,cutoff):   37    2  161.4736382572
Confining potential (l,width,scale):  0    3.0000000000  100.0000000000
Confining potential (l,width,scale):  1    3.0000000000  100.0000000000
  1         -5.4129360987   -1.2444937266    4.5135257941   -1.5420271367
  2         -5.3444202281   -1.3377187790    4.4131101426   -1.5071921700
  3         -5.3525226456   -1.3566567794    4.3924752240   -1.5004938544
  4         -5.3561013121   -1.3623552809    4.3862114699   -1.4986199617
  5         -5.3580093800   -1.3653574582    4.3828991843   -1.4976654093
  6         -5.3590276761   -1.3669475005    4.3811409016   -1.4971696795
  7         -5.3595688314   -1.3677934914    4.3802040659   -1.4969088858
  8         -5.3598556216   -1.3682449178    4.3797036984   -1.4967706290
  9         -5.3600074081   -1.3684862338    4.3794360452   -1.4966970063
 10         -5.3600877081   -1.3686153812    4.3792927313   -1.4966576988
 11         -5.3601301919   -1.3686845537    4.3792159394   -1.4966366788
 12         -5.3601526758   -1.3687216261    4.3791747687   -1.4966254262
 13         -5.3601645804   -1.3687415049    4.3791526850   -1.4966193980
 14         -5.3601708871   -1.3687521691    4.3791408341   -1.4966161667
 15         -5.3601742301   -1.3687578926    4.3791344719   -1.4966144337
 16         -5.3601760032   -1.3687609656    4.3791310549   -1.4966135039
 17         -5.3601769442   -1.3687626162    4.3791292190   -1.4966130048
 18         -5.3601774440   -1.3687635032    4.3791282322   -1.4966127369
 19         -5.3601777096   -1.3687639799    4.3791277016   -1.4966125929
 20         -5.3601778508   -1.3687642363    4.3791274162   -1.4966125155
 21         -5.3601779259   -1.3687643743    4.3791272626   -1.4966124740
Atom SCF converged after  21 iterations to a total energy of     -5.36017793

Determining parallel strategy ...
... using space-filling curve
... NGWF load balancing: max     64;  min     64;  average     64
... Projector load balancing: max    128;  min    128;  average    128
... done
Calculating Ewald energy ...
              Ewald: real-space energy =    9488.921918
        Ewald: reciprocal-space energy =       0.489429
         Ewald: (sum_charge)**2 Energy =   10818.505505
         Ewald: (sum_charge**2) Energy =     855.277957
                          Ewald Energy =   -2184.372114
Basis initialisation ...... NGWF spheres initialised
... Projector spheres initialised
... NGWF tight boxes initialised
... Projector tight boxes initialised
... Tight-boxes gathered
... NGWF basis size (local,global):     692372  27895264
... PAW projector initialisation
... done

============================= Charge Augmentation ==============================
                           Aug box size:   11 x  11 x  11
================================================================================

========================== Sparse matrix information ===========================
                        Overlap matrix filling:  40.31%
                        Density kernel filling: 100.00%
              NGWF-Proj overlap matrix filling:  12.19%
                    Aug Overlap matrix filling:  47.03%
                    Hamiltonian matrix filling:  47.03%
                  NGWF diagonal matrix filling:   0.16%
                             KS matrix filling: 100.00% 
                           KSKS matrix filling: 100.00% 
================================================================================

Sparse matrix initialisation ... done
NGWF initialisation ...... done
============ Calculation of NGWF S^-1 using Hotelling algorithm ================ 
         Iteration  |  Frobenius norm and Maximum abs value    (of I-S*S_n^-1)   
               1       0.48929315E+02     0.97437112E+00
               2       0.47617569E+02     0.95059633E+00
               3       0.45682675E+02     0.90778171E+00
               4       0.43218122E+02     0.83680599E+00
               5       0.40299340E+02     0.73251478E+00
               6       0.36960798E+02     0.67284703E+00
               7       0.33559423E+02     0.62727108E+00
               8       0.30331621E+02     0.58921491E+00
               9       0.26820066E+02     0.54583748E+00
              10       0.22334019E+02     0.47631732E+00
              11       0.16482744E+02     0.36609565E+00
              12       0.97698838E+01     0.22176650E+00
              13       0.39421006E+01     0.87186963E-01
              14       0.76736028E+00     0.15550386E-01
              15       0.34484163E-01     0.60808430E-03
              16       0.89165841E-04     0.11911738E-05
              17       0.90437112E-09     0.73606676E-11
              18       0.74746284E-13     0.39968029E-14
================================================================================
Calculating core density ...
================================= Core Density =================================
               Core den box size:   21 x  21 x  21
================================================================================
 ... done
Up spin density kernel initialisation ...... done

Writing density kernel to file "3.8369616_GO_manual_4x64graphite.dkn" ... done

>>> Optimising kernel for current NGWFs:

--------------------------- Ensemble-DFT optimisation --------------------------
Running ScaLAPACK on   40 processor(s).

--------------------------------------------------------------------------------
  Iter                              Commutator    Free_energy(A=E-TS)     DeltaA
#    0                          0.000026616284   -3615.66655678742200  -3.62E+03

Step                       =       0.381966011250
Energy                     =   -3615.666532821592
Entropy (-TS)              =      -0.000023966157
Free energy (A=E-TS)       =   -3615.666556787422
Est. 0K Energy 0.5*(E+A)   =   -3615.666544804507
Residual Non-orthogonality =       0.000000000000
Residual N_electrons       =       0.000000000327

Spin          Integrated_Ne            Fermi_level     Delta_Fermi_level
   1      2559.999999997869         0.153531671802              1.54E-01

                           Spin 1          
     Orb      H-eigenvalues     Occupancies
       1 |    -0.5717012533    1.0000000000 | 
                          ------
    1276 |     0.1177422956    0.9999876444 | 
    1277 |     0.1183275615    0.9999851364 | 
    1278 |     0.1183652958    0.9999849582 | 
    1279 |     0.1183772384    0.9999849014 | 
    1280 |     0.1189634745    0.9999818310 | 
                 - Gap at zero temperature -
    1281 |     0.1902411064    0.0000092403 | 
    1282 |     0.1902501187    0.0000092141 | 
    1283 |     0.1902584893    0.0000091898 | 
    1284 |     0.1903237033    0.0000090024 | 
    1285 |     0.1903413791    0.0000089523 | 
                          ------
    2560 |     0.9946637480    0.0000000000 | 

                       |  Abs_value |  Threshold | Converged
     Delta_Free_energy |   3.62E+03 |   1.00E-06 |        No
     Delta_Energy      |   3.62E+03 |   1.00E-04 |        No
     Delta_Entropy     |   2.40E-05 |   1.00E-04 |       Yes
     Commutator        |   2.66E-05 |   1.00E-05 |        No
     Delta_Fermi_level |   1.54E-01 |   1.00E-03 |        No

  Line search of the free energy minimum:
  Step_type        Step             Free_energy   Predicted_free_energy
.   Initial    0.000000    -3615.66655678742200
.    Trial1    0.381966    -3615.66741490662343
.    Trial2    0.618034    -3615.66748972920459
. Quadratic    0.550758    -3615.66750399845296    -3615.66750386055537

--------------------------------------------------------------------------------
  Iter                              Commutator    Free_energy(A=E-TS)     DeltaA
#    1                          0.000015903668   -3615.66750399845296  -9.47E-04

Step                       =       0.550757888415
Energy                     =   -3615.667478927483
Entropy (-TS)              =      -0.000025071023
Free energy (A=E-TS)       =   -3615.667503998453
Est. 0K Energy 0.5*(E+A)   =   -3615.667491462968
Residual Non-orthogonality =       0.000000000000
Residual N_electrons       =       0.000000000053

Spin          Integrated_Ne            Fermi_level     Delta_Fermi_level
   1      2559.999999999649         0.150247753249             -3.28E-03

                           Spin 1          
     Orb      H-eigenvalues     Occupancies
       1 |    -0.5753716290    1.0000000000 | 
                          ------
    1276 |     0.1146589970    0.9999868364 | 
    1277 |     0.1151433341    0.9999846610 | 
    1278 |     0.1151464946    0.9999846457 | 
    1279 |     0.1152361319    0.9999842049 | 
    1280 |     0.1157243540    0.9999815721 | 
                 - Gap at zero temperature -
    1281 |     0.1867385827    0.0000099007 | 
    1282 |     0.1867475827    0.0000098726 | 
    1283 |     0.1867630947    0.0000098244 | 
    1284 |     0.1868256570    0.0000096322 | 
    1285 |     0.1868549856    0.0000095434 | 
                          ------
    2560 |     0.9901986907    0.0000000000 | 

                       |  Abs_value |  Threshold | Converged
     Delta_Free_energy |   9.47E-04 |   1.00E-06 |        No
     Delta_Energy      |   9.46E-04 |   1.00E-04 |        No
     Delta_Entropy     |   1.10E-06 |   1.00E-04 |       Yes
     Commutator        |   1.59E-05 |   1.00E-05 |        No
     Delta_Fermi_level |   3.28E-03 |   1.00E-03 |        No

  Line search of the free energy minimum:
  Step_type        Step             Free_energy   Predicted_free_energy
.   Initial    0.000000    -3615.66750399845296
.    Trial1    0.550758    -3615.66744258334802
.    Trial2    0.210371    -3615.66774459687258
. Quadratic    0.260259    -3615.66775383237427    -3615.66775377465228

--------------------------------------------------------------------------------
  Iter                              Commutator    Free_energy(A=E-TS)     DeltaA
#    2                          0.000008475857   -3615.66775383237427  -2.50E-04

Step                       =       0.260259163795
Energy                     =   -3615.667728522061
Entropy (-TS)              =      -0.000025310570
Free energy (A=E-TS)       =   -3615.667753832374
Est. 0K Energy 0.5*(E+A)   =   -3615.667741177218
Residual Non-orthogonality =       0.000000000000
Residual N_electrons       =       0.000000000257

Spin          Integrated_Ne            Fermi_level     Delta_Fermi_level
   1      2559.999999998280         0.149545959393             -7.02E-04

                           Spin 1          
     Orb      H-eigenvalues     Occupancies
       1 |    -0.5761608321    1.0000000000 | 
                          ------
    1276 |     0.1139591490    0.9999868283 | 
    1277 |     0.1144871970    0.9999844383 | 
    1278 |     0.1144900768    0.9999844241 | 
    1279 |     0.1145332457    0.9999842104 | 
    1280 |     0.1150649642    0.9999813237 | 
                 - Gap at zero temperature -
    1281 |     0.1860228161    0.0000099445 | 
    1282 |     0.1860319543    0.0000099158 | 
    1283 |     0.1860475081    0.0000098673 | 
    1284 |     0.1861128658    0.0000096657 | 
    1285 |     0.1861427708    0.0000095749 | 
                          ------
    2560 |     0.9892322357    0.0000000000 | 

                       |  Abs_value |  Threshold | Converged
     Delta_Free_energy |   2.50E-04 |   1.00E-06 |        No
     Delta_Energy      |   2.50E-04 |   1.00E-04 |        No
     Delta_Entropy     |   2.40E-07 |   1.00E-04 |       Yes
     Commutator        |   8.48E-06 |   1.00E-05 |       Yes
     Delta_Fermi_level |   7.02E-04 |   1.00E-03 |       Yes

  Line search of the free energy minimum:
  Step_type        Step             Free_energy   Predicted_free_energy
.   Initial    0.000000    -3615.66775383237427
.    Trial1    0.260259    -3615.66782386511704
.    Trial2    0.542815    -3615.66782909360836
. Quadratic    0.421579    -3615.66783588955741    -3615.66783587884174

--------------------------------------------------------------------------------
  Iter                              Commutator    Free_energy(A=E-TS)     DeltaA
#    3                          0.000005838388   -3615.66783588955741  -8.21E-05

Step                       =       0.421579054634
Energy                     =   -3615.667810293999
Entropy (-TS)              =      -0.000025595574
Free energy (A=E-TS)       =   -3615.667835889557
Est. 0K Energy 0.5*(E+A)   =   -3615.667823091778
Residual Non-orthogonality =       0.000000000000
Residual N_electrons       =       0.000000000015

Spin          Integrated_Ne            Fermi_level     Delta_Fermi_level
   1      2559.999999999896         0.148700517833             -8.45E-04

                           Spin 1          
     Orb      H-eigenvalues     Occupancies
       1 |    -0.5771004578    1.0000000000 | 
                          ------
    1276 |     0.1131339337    0.9999867439 | 
    1277 |     0.1136801966    0.9999842482 | 
    1278 |     0.1136829132    0.9999842347 | 
    1279 |     0.1137045021    0.9999841269 | 
    1280 |     0.1142543039    0.9999811175 | 
                 - Gap at zero temperature -
    1281 |     0.1851467359    0.0000100412 | 
    1282 |     0.1851560151    0.0000100118 | 
    1283 |     0.1851717007    0.0000099623 | 
    1284 |     0.1852396468    0.0000097509 | 
    1285 |     0.1852700830    0.0000096576 | 
                          ------
    2560 |     0.9880878354    0.0000000000 | 

                       |  Abs_value |  Threshold | Converged
     Delta_Free_energy |   8.21E-05 |   1.00E-06 |        No
     Delta_Energy      |   8.18E-05 |   1.00E-04 |       Yes
     Delta_Entropy     |   2.85E-07 |   1.00E-04 |       Yes
     Commutator        |   5.84E-06 |   1.00E-05 |       Yes
     Delta_Fermi_level |   8.45E-04 |   1.00E-03 |       Yes

  Line search of the free energy minimum:
  Step_type        Step             Free_energy   Predicted_free_energy
.   Initial    0.000000    -3615.66783588955741
.    Trial1    0.421579    -3615.66785712988076
.    Trial2    0.642516    -3615.66780066317278
. Quadratic    0.263691    -3615.66786898626606    -3615.66786900064881

--------------------------------------------------------------------------------
  Iter                              Commutator    Free_energy(A=E-TS)     DeltaA
#    4                          0.000003513674   -3615.66786898626606  -3.31E-05

Step                       =       0.263691297045
Energy                     =   -3615.667843287133
Entropy (-TS)              =      -0.000025698959
Free energy (A=E-TS)       =   -3615.667868986266
[...]
 C   275 -- C   555       -0.10      5.37000
 C   274 -- C   554       -0.10      5.37000
 C   273 -- C   553       -0.10      5.37000
 C   272 -- C   552       -0.10      5.37000
 C   271 -- C   551       -0.10      5.37000
 C   270 -- C   550       -0.10      5.37000
 C   269 -- C   549       -0.10      5.37000
 C   268 -- C   548       -0.10      5.37000
 C   267 -- C   547       -0.10      5.37000
 C   266 -- C   546       -0.10      5.37000
 C   130 -- C   465       -0.10      5.37000
 C   129 -- C   464       -0.10      5.37000
 C   128 -- C   463       -0.10      5.37000
 C   127 -- C   462       -0.10      5.37000
 C   126 -- C   461       -0.10      5.37000
 C   240 -- C   525       -0.10      5.37000
 C   239 -- C   524       -0.10      5.37000
 C   238 -- C   523       -0.10      5.37000
 C   237 -- C   522       -0.10      5.37000
 C   236 -- C   521       -0.10      5.37000
 C    23 -- C   478       -0.10      5.37202
 C    49 -- C   469       -0.10      5.37202
 C    48 -- C   468       -0.10      5.37202
 C    47 -- C   467       -0.10      5.37202
 C    22 -- C   477       -0.10      5.37202
 C    46 -- C   466       -0.10      5.37202
 C    21 -- C   476       -0.10      5.37202
 C    25 -- C   480       -0.10      5.37202
 C    24 -- C   479       -0.10      5.37202
 C    50 -- C   470       -0.10      5.37202
 C    24 -- C   449       -0.10      5.37202
 C     6 -- C   416       -0.10      5.37202
 C    23 -- C   448       -0.10      5.37202
 C    22 -- C   447       -0.10      5.37202
 C    10 -- C   470       -0.10      5.37202
 C     5 -- C   450       -0.10      5.37202
 C    21 -- C   446       -0.10      5.37202
 C    10 -- C   420       -0.10      5.37202
 C     9 -- C   469       -0.10      5.37202
 C     9 -- C   419       -0.10      5.37202
 C     8 -- C   468       -0.10      5.37202
 C     4 -- C   449       -0.10      5.37202
 C     8 -- C   418       -0.10      5.37202
 C   285 -- C   580       -0.10      5.37202
 C   284 -- C   579       -0.10      5.37202
 C   283 -- C   578       -0.10      5.37202
 C   282 -- C   577       -0.10      5.37202
 C   281 -- C   576       -0.10      5.37202
 C     2 -- C   447       -0.10      5.37202
 C     7 -- C   467       -0.10      5.37202
 C   260 -- C   605       -0.10      5.37202
 C   259 -- C   604       -0.10      5.37202
 C   258 -- C   603       -0.10      5.37202
 C   257 -- C   602       -0.10      5.37202
 C   256 -- C   601       -0.10      5.37202
 C     7 -- C   417       -0.10      5.37202
 C     1 -- C   446       -0.10      5.37202
 C     6 -- C   466       -0.10      5.37202
 C    25 -- C   450       -0.10      5.37202
 C     3 -- C   448       -0.10      5.37202
 C   219 -- C   569       -0.10      5.37202
 C   218 -- C   568       -0.10      5.37202
 C   217 -- C   567       -0.10      5.37202
 C   216 -- C   566       -0.10      5.37202
 C   250 -- C   540       -0.10      5.37202
 C   249 -- C   539       -0.10      5.37202
 C   248 -- C   538       -0.10      5.37202
 C   247 -- C   537       -0.10      5.37202
 C   246 -- C   536       -0.10      5.37202
 C   220 -- C   570       -0.10      5.37202
 C   205 -- C   550       -0.10      5.37202
 C   204 -- C   549       -0.10      5.37202
 C   203 -- C   548       -0.10      5.37202
 C   202 -- C   547       -0.10      5.37202
 C   201 -- C   546       -0.10      5.37202
 C    95 -- C   365       -0.10      5.37202
 C    94 -- C   364       -0.10      5.37202
 C    93 -- C   363       -0.10      5.37202
 C    92 -- C   362       -0.10      5.37202
 C    91 -- C   361       -0.10      5.37202
 C    65 -- C   395       -0.10      5.37202
 C    64 -- C   394       -0.10      5.37202
 C    63 -- C   393       -0.10      5.37202
 C    30 -- C   355       -0.10      5.37202
 C    62 -- C   392       -0.10      5.37202
 C    61 -- C   391       -0.10      5.37202
 C    29 -- C   354       -0.10      5.37202
 C   260 -- C   550       -0.10      5.37202
 C   259 -- C   549       -0.10      5.37202
 C    28 -- C   353       -0.10      5.37202
 C   258 -- C   548       -0.10      5.37202
 C   257 -- C   547       -0.10      5.37202
 C   256 -- C   546       -0.10      5.37202
 C    27 -- C   352       -0.10      5.37202
 C    26 -- C   351       -0.10      5.37202
 C    55 -- C   335       -0.10      5.37202
 C    54 -- C   334       -0.10      5.37202
 C    53 -- C   333       -0.10      5.37202
 C   230 -- C   580       -0.10      5.37202
 C   230 -- C   525       -0.10      5.37202
 C   229 -- C   579       -0.10      5.37202
 C   229 -- C   524       -0.10      5.37202
 C   228 -- C   578       -0.10      5.37202
 C    52 -- C   332       -0.10      5.37202
 C   228 -- C   523       -0.10      5.37202
 C   227 -- C   577       -0.10      5.37202
 C   227 -- C   522       -0.10      5.37202
 C   226 -- C   576       -0.10      5.37202
 C   226 -- C   521       -0.10      5.37202
 C    51 -- C   331       -0.10      5.37202
 C   220 -- C   515       -0.10      5.37202
 C   219 -- C   514       -0.10      5.37202
 C   218 -- C   513       -0.10      5.37202
 C   217 -- C   512       -0.10      5.37202
 C   216 -- C   511       -0.10      5.37202
 C   195 -- C   540       -0.10      5.37202
 C   195 -- C   500       -0.10      5.37202
 C   194 -- C   539       -0.10      5.37202
 C   194 -- C   499       -0.10      5.37202
 C   193 -- C   538       -0.10      5.37202
 C   193 -- C   498       -0.10      5.37202
 C   192 -- C   537       -0.10      5.37202
 C   192 -- C   497       -0.10      5.37202
 C   191 -- C   536       -0.10      5.37202
 C   191 -- C   496       -0.10      5.37202
 C   180 -- C   515       -0.10      5.37202
 C   179 -- C   514       -0.10      5.37202
 C   178 -- C   513       -0.10      5.37202
 C   177 -- C   512       -0.10      5.37202
 C   176 -- C   511       -0.10      5.37202
 C   150 -- C   440       -0.10      5.37202
 C   149 -- C   439       -0.10      5.37202
 C   148 -- C   438       -0.10      5.37202
 C   147 -- C   437       -0.10      5.37202
 C   146 -- C   436       -0.10      5.37202
 C   135 -- C   460       -0.10      5.37202
 C   134 -- C   459       -0.10      5.37202
 C   133 -- C   458       -0.10      5.37202
 C   132 -- C   457       -0.10      5.37202
 C   131 -- C   456       -0.10      5.37202
 C    11 -- C   331       -0.10      5.37202
 C    95 -- C   425       -0.10      5.37202
 C    94 -- C   424       -0.10      5.37202
 C    93 -- C   423       -0.10      5.37202
 C    92 -- C   422       -0.10      5.37202
 C    91 -- C   421       -0.10      5.37202
 C    85 -- C   355       -0.10      5.37202
 C    40 -- C   365       -0.10      5.37202
 C    84 -- C   354       -0.10      5.37202
 C    83 -- C   353       -0.10      5.37202
 C    82 -- C   352       -0.10      5.37202
 C    39 -- C   364       -0.10      5.37202
 C    81 -- C   351       -0.10      5.37202
 C    38 -- C   363       -0.10      5.37202
 C    37 -- C   362       -0.10      5.37202
 C    36 -- C   361       -0.10      5.37202
 C    15 -- C   335       -0.10      5.37202
 C    65 -- C   345       -0.10      5.37202
 C    64 -- C   344       -0.10      5.37202
 C    63 -- C   343       -0.10      5.37202
 C    30 -- C   325       -0.10      5.37202
 C    62 -- C   342       -0.10      5.37202
 C    14 -- C   334       -0.10      5.37202
 C    61 -- C   341       -0.10      5.37202
 C    29 -- C   324       -0.10      5.37202
 C    28 -- C   323       -0.10      5.37202
 C    13 -- C   333       -0.10      5.37202
 C    27 -- C   322       -0.10      5.37202
 C   120 -- C   395       -0.10      5.37202
 C    55 -- C   385       -0.10      5.37202
 C   119 -- C   394       -0.10      5.37202
 C   118 -- C   393       -0.10      5.37202
 C   117 -- C   392       -0.10      5.37202
 C    54 -- C   384       -0.10      5.37202
 C    26 -- C   321       -0.10      5.37202
 C   116 -- C   391       -0.10      5.37202
 C    53 -- C   383       -0.10      5.37202
 C    12 -- C   332       -0.10      5.37202
 C    52 -- C   382       -0.10      5.37202
 C    51 -- C   381       -0.10      5.37202
 C   106 -- C   436       -0.10      5.37202
 C   106 -- C   376       -0.10      5.37202
 C    80 -- C   410       -0.10      5.37202
 C    79 -- C   409       -0.10      5.37202
 C    78 -- C   408       -0.10      5.37202
 C    77 -- C   407       -0.10      5.37202
 C    76 -- C   406       -0.10      5.37202
 C   135 -- C   410       -0.10      5.37202
 C   134 -- C   409       -0.10      5.37202
 C   133 -- C   408       -0.10      5.37202
 C   132 -- C   407       -0.10      5.37202
 C   131 -- C   406       -0.10      5.37202
 C   110 -- C   440       -0.10      5.37202
 C   110 -- C   380       -0.10      5.37202
 C   109 -- C   439       -0.10      5.37202
 C   109 -- C   379       -0.10      5.37202
 C   108 -- C   438       -0.10      5.37202
 C   108 -- C   378       -0.10      5.37202
 C   107 -- C   437       -0.10      5.37202
 C   107 -- C   377       -0.10      5.37202
 C   215 -- C   635       -0.10      5.38000
 C   214 -- C   634       -0.10      5.38000
 C   213 -- C   633       -0.10      5.38000
 C   212 -- C   632       -0.10      5.38000
 C   211 -- C   631       -0.10      5.38000
 C   190 -- C   620       -0.10      5.38000
 C   189 -- C   619       -0.10      5.38000
 C   188 -- C   618       -0.10      5.38000
 C   187 -- C   617       -0.10      5.38000
 C   186 -- C   616       -0.10      5.38000
 C   175 -- C   595       -0.10      5.38000
 C   174 -- C   594       -0.10      5.38000
 C   173 -- C   593       -0.10      5.38000
 C   172 -- C   592       -0.10      5.38000
 C   171 -- C   591       -0.10      5.38000
 C   245 -- C   640       -0.10      5.38000
 C   244 -- C   639       -0.10      5.38000
 C   243 -- C   638       -0.10      5.38000
 C   242 -- C   637       -0.10      5.38000
 C   241 -- C   636       -0.10      5.38000
==================================================


=================== Orbital energy and occupancy information ===================

      Total number of orbitals:    2560
        Occupancy sum (kernel):    1279.999999999
   Occupancy sum (eigenvalues):    1279.999999999
                 HOMO-LUMO gap:       0.067577255 Eh
                 Mid-gap level:       0.207158645 Eh

                        Orbital | Energy (Eh) | Occupancy
                            1    -0.510955907   1.0000000
                        .......   ...........   .........
                         1271     0.169696759   0.9999890
                         1272     0.169746113   0.9999888
                         1273     0.170170760   0.9999872
                         1274     0.170220126   0.9999870
                         1275     0.172083810   0.9999766
                         1276     0.172093858   0.9999765
                         1277     0.172557745   0.9999728
                         1278     0.172567780   0.9999728
                         1279     0.172897249   0.9999698
                         1280     0.173370018   0.9999649
                        ....... -- gap at 0K -- .........
                         1281     0.240947273   0.0000152
                         1282     0.240982826   0.0000150
                         1283     0.241188575   0.0000140
                         1284     0.241220000   0.0000139
                         1285     0.241222977   0.0000139
                         1286     0.241224498   0.0000139
                         1287     0.241399277   0.0000132
                         1288     0.241470291   0.0000129
                         1289     0.241473134   0.0000129
                         1290     0.241512144   0.0000127
                        .......   ...........   .........
                         2560     1.109168643   0.0000000

================================================================================

===================== Writing canonical molecular orbitals =====================
| Orbital  Energy (eV)  Norm     |
| HOMO      4.71763823  1.000000 | Writing "3.8369616_GO_manual_4x64graphite_HOMO.cube" ... done
Writing "3.8369616_GO_manual_4x64graphite_HOMO.dx" ... done
| LUMO      6.55650891  1.000000 | Writing "3.8369616_GO_manual_4x64graphite_LUMO.cube" ... done
Writing "3.8369616_GO_manual_4x64graphite_LUMO.dx" ... done
================================================================================
 
===================== Density of States (DOS) calculation ======================
Writing "3.8369616_GO_manual_4x64graphite_DOS.txt" ...  done
================================================================================
 
Writing bands to file "3.8369616_GO_manual_4x64graphite.val_bands" ... done
 
================ Projected Density of States (pDOS) calculation ================
 
Constructing AM resolved functions  ...... done
Writing NGWF plot files in formats: CUBE DX ...  done
 
Performing overlap integrals ...  done
 
Computing pDOS weights ...  done
 
All bands spilling parameter =   3.01 %
Occupancy-weighted spilling parameter =   0.94 %
 
 => Outputting data for OptaDOS <=
 
Writing pDOS weights to file "3.8369616_GO_manual_4x64graphite.val_pdos_bin" ... done
 
Writing band gradients to file "3.8369616_GO_manual_4x64graphite.val_dome_bin" ... done
 
Writing Castep output cell file to "3.8369616_GO_manual_4x64graphite-out.cell" ... done
 
 => Computing Gaussian smeared pDOS <= 
Writing "3.8369616_GO_manual_4x64graphite_PDOS.txt" ...  done
 
 => Computing Occupancy-weighted Gaussian smeared pDOS <= 
Writing "3.8369616_GO_manual_4x64graphite_occ_PDOS.txt" ...  done
  => Band centres: 
 S band centre of group 1:  -13.673493 eV
 P band centre of group 1:   -6.597587 eV
  Band centres done. <=
  => Integrated number of electrons in each AM band: 
 S num electrons of group 1:  571.414577
 P num electrons of group 1: 1964.528453
  Integrated number of electrons done. <=
================================================================================

------------------------------ TIMING INFORMATION ------------------------------
AVERAGE TIME:    2950.050s on     40 node(s)                                    
TOTAL TIME:      2950.051s on     40 node(s)                                    
================= AVERAGE TIMINGS FROM ALL NODES (CUMULATIVE) ==================
|| TAG                                    #calls    cpu time   %total  Gflops ||
|| work_imbalance                       :     1        0.00s   0.000%  ------ ||
|| paw_tcore_hartree_on_grid            :     1        0.00s   0.000%  ------ ||
|| paw_tcore_density                    :     1        0.01s   0.000%  ------ ||
|| paw_sphere_density_on_grid           :     1        0.01s   0.000%  ------ ||
|| sparse_set_to_garbage                :   135        0.02s   0.001%  ------ ||
|| paw_dij_hartree                      :   269        0.03s   0.001%  ------ ||
|| pseudo_make_structure_factor         :     1        0.06s   0.002%  ------ ||
|| basis_extract_function_from_box      :  1536        0.06s   0.002%  ------ ||
|| paw_species_calc_proj_prec_mat       :     1        0.12s   0.004%  ------ ||
|| paw_dataset_init                     :     1        0.15s   0.005%  ------ ||
|| density_init_guess_real              :     1        0.17s   0.006%  ------ ||
|| ngwfs_initialise_from_radial         :     2        0.67s   0.023%  ------ ||
|| restart_kernel_write                 :    13        0.79s   0.027%  ------ ||
|| sparse_init                          :     1        0.86s   0.029%  ------ ||
|| dense_normal_eigensolve              :     1        1.03s   0.035%  ------ ||
|| hartree_on_grid                      :   203        1.12s   0.038%  ------ ||
|| projectors_init_fftbox_recip         :   121        2.30s   0.078%  ------ ||
|| ewald_calculate_energy               :     1        3.34s   0.113%  ------ ||
|| fourier_apply_box_pair               :  2272        3.75s   0.127% 561.262 ||
|| basis_copy_function_to_box           : 19328        4.18s   0.142%  ------ ||
|| augmentation_screen_dij              :   208        4.48s   0.152%  ------ ||
|| sparse_embed_hotelling_invert_embed  :    23        6.38s   0.216%  ------ ||
|| sw_init                              :     1        6.73s   0.228%  ------ ||
|| ngwf_gradient_coeffs                 :    12        8.52s   0.289%  ------ ||
|| sparse_trace                         :  2432       10.88s   0.369%  ------ ||
|| cell_grid_extract_box_real           :  8140       13.46s   0.456%  ------ ||
|| fourier_apply_cell_backward          :  6264       13.55s   0.459%  62.653 ||
|| fourier_apply_cell_forward           :  5859       15.27s   0.518%  51.994 ||
|| cell_grid_deposit_box_real           : 26160       18.02s   0.611%  ------ ||
|| paw_dij_xc                           :   269       21.48s   0.728%  ------ ||
|| aug_nonlocal_mat                     :   257       29.67s   1.006%  ------ ||
|| augmentation_density_on_grid         :   203       35.62s   1.207%  ------ ||
|| density_fftbox_deposit_to_cell       : 12992       37.32s   1.265%  ------ ||
|| function_ops_brappd_ketppd           :    48       44.06s   1.494%  ------ ||
|| hamiltonian_energy_components        :     3       45.98s   1.559%  ------ ||
|| eigenstates_pdos                     :     1       46.89s   1.590%  ------ ||
|| eigenstates_calculate                :     1       50.88s   1.725%  ------ ||
|| projectors_func_ovlp_box             :    24       52.45s   1.778%  ------ ||
|| xc_energy_potential                  :   202       64.47s   2.186%  ------ ||
|| nlxc_vdw_energy                      :   404       66.88s   2.267%  ------ ||
|| integrals_kinetic                    :    23       73.05s   2.476%  ------ ||
|| dense_eigensolve                     :   176       87.53s   2.967%  ------ ||
|| properties_calculate                 :     1       92.68s   3.142%  ------ ||
|| sparse_product                       :  2485       98.70s   3.346%  ------ ||
|| potential_apply_to_ngwf_batch        :   252      100.38s   3.403%  ------ ||
|| restart_ngwfs_tightbox_output        :    11      124.18s   4.209%  ------ ||
|| basis_dot_function_with_box          : 5.880M     159.12s   5.394%  ------ ||
|| fourier_apply_box                    : 61104      189.03s   6.408% 979.017 ||
|| edft_diag_ngwf_ham                   :   175      195.07s   6.612%  ------ ||
|| integrals_locpot_mat_els_batch       :   252      203.37s   6.894%  ------ ||
|| projectors_gradient_batch            :    48      215.34s   7.300%  ------ ||
|| density_fftbox_interpolate_multiply  : 12992      252.10s   8.546%  ------ ||
|| projectors_grad_precond_batch        :    48      298.17s  10.107%  ------ ||
|| integrals_locpot_dbl_grid            :    63      304.81s  10.332%  ------ ||
|| density_batch_interp_deposit         :   812      323.03s  10.950%  ------ ||
|| edft_apply_smearing_operator         :   175      379.61s  12.868%  ------ ||
|| basis_add_function_to_box            : 16.58M     433.31s  14.688%  ------ ||
|| ngwf_gradient_build_batch            :    48      549.99s  18.643%  ------ ||
|| density_batch_row_sums               :   812      592.57s  20.087%  ------ ||
|| ngwf_gradient_batch                  :    48      722.66s  24.497%  ------ ||
|| ngwf_gradient_lnv                    :    12      741.95s  25.150%  ------ ||
|| density_on_dbl_grid                  :   203      926.24s  31.397%  ------ ||
|| hamiltonian_lhxc_calculate           :   198     1008.75s  34.194%  ------ ||
|| edft_calculate                       :    12     1674.29s  56.754%  ------ ||
|| ngwf_cg_optimise                     :     1     2837.48s  96.184%  ------ ||
|| total_time                           :     1     2950.05s 100.000%  ------ ||
================================================================================
Overhead of generating timer report: 
- 0 ms averaging over threads,
- 5 ms ensuring consistency across MPI ranks,
- 0 ms printing in order.

Job completed: 29-02-2020 07:05 (-0000)

