 +---------------------------------------------------------------+
 |                                                               |
 |        ####### #     # ####### ####### ####### ######         |
 |        #     # ##    # #          #    #       #     #        |
 |        #     # # #   # #          #    #       #     #        |
 |        #     # #  #  # #####      #    #####   ######         |
 |        #     # #   # # #          #    #       #              |
 |        #     # #    ## #          #    #       #              |
 |        ####### #     # #######    #    ####### #              |
 |                                                               |
 |        Linear-Scaling Ab Initio Total Energy Program          |
 |                                                               |
 |          Release for academic collaborators of ODG            |
 |                                             Version 5.3.2.12  |
 |                                                               |
 +---------------------------------------------------------------+
 |                                                               |
 |  Authors:                                                     |
 |  Jacek Dziedzic, Peter D. Haynes, Nicholas D. M. Hine,        |
 |  Arash. A. Mostofi, Mike C. Payne and Chris-Kriton Skylaris   |
 |                                                               |
 |  Contributors:                                                |
 |  J. Aarons, L. Andrinopoulos, P. W. Avraam, R. A. Bell,       |
 |  A. Bhandari, G. A. Bramley, R. J. Charlton, S. J. Clark,     |
 |  R. J. Clements, G. C. Constantinescu, F. Corsetti,           |
 |  N. Corsini, O. Dieguez, S. M. M. Dubois, K. K. B. Duff,      |
 |  J. M. Escartin, A. Greco, H. Helal, Q. O. Hill, L. P. Lee,   |
 |  J.-H. Li, E. B. Linscott, G. Moynihan, D. D. O`Regan,        |
 |  O. K. Okan, M. J. S. Phipps, C. J. Pickard,                  |
 |  J. C. A. Prentice, M. I. J. Probert, L. E. Ratcliff,         |
 |  M. Robinson, A. Ruiz Serrano, J. S. Spencer, E. W. Tait,     |
 |  G. Teobaldi, D. Turban, V. Vitale, K. A. Wilkinson,          |
 |  C. Weber, J. C. Womack, N. Yeung and T. J. Zuehlsdorff       |
 |                                                               |
 |                                   Copyright (c) 2004-2020     |
 |                                                               |
 |  Please cite:                                                 |
 |  "Introducing ONETEP: Linear-scaling density functional       |
 |   simulations on parallel computers".                         |
 |   C.-K. Skylaris, P. D. Haynes, A. A. Mostofi, M. C. Payne.   |
 |   J. Chem. Phys. 122 084119 (2005).                           |
 |                                                               |
 |          in all publications arising from your use of ONETEP. |
 |                                                               |
 +---------------------------------------------------------------+
 |                                                               |
 |   ONETEP is based on developments described in the following  |
 |   publications:                                               |
 |                                                               |
 |  "Nonorthogonal generalized Wannier function pseudopotential  |
 |   plane-wave method".                                         |
 |   C.-K. Skylaris, A. A. Mostofi, P. D. Haynes, O. Dieguez,    |
 |   M. C. Payne.                                                |
 |   Phys. Rev. B 66 035119 (2002).                              |
 |                                                               |
 |  "Preconditioned iterative minimization for linear-scaling    |
 |   electronic structure calculations".                         |
 |   A. A. Mostofi, P. D. Haynes, C.-K. Skylaris, M. C. Payne.   |
 |   J. Chem. Phys. 119(17), pp.8842-8848 (2003).                |
 |                                                               |
 |  "Total-energy calculations on a real space grid with         |
 |   localized functions and a plane-wave basis".                |
 |   A. A. Mostofi, C.-K. Skylaris, P. D. Haynes, M. C. Payne.   |
 |   Comput. Phys. Commun. 147, pp.788-802 (2002).               |
 |                                                               |
 |  "Accurate kinetic energy evaluation in electronic structure  |
 |   calculations with localized functions on real space grids"  |
 |   C.-K. Skylaris, A. A. Mostofi, P. D. Haynes, C. J. Pickard, |
 |   M. C. Payne.                                                |
 |   Comput. Phys. Commun. 140, pp.315-322 (2001).               |
 |                                                               |
 |  "Accurate ionic forces and geometry optimization in linear-  |
 |   scaling density-functional theory with local orbitals"      |
 |   N. D. M. Hine, M. Robinson, P. D. Haynes, C.-K. Skylaris,   |
 |   M. C. Payne, and A. A. Mostofi.                             |
 |   Phys. Rev. B 83 195102 (2011).                              |
 |                                                               |
 +---------------------------------------------------------------+

Job started: 29-02-2020 07:01 (-0000)
 
Reading parameters from file "3.8637928_GO_manual_4x64graphite.dat" ...

WARNING: "cutoff_energy" not specified, but "psinc_spacing" specified.
         Using the latter to set the KE cutoff energy to  732.32021eV,
         thus *overriding* the default.

... done

If your calculation crashes here, before "Checking processes and threads..."
is displayed, then your stack size is insufficient.
If so, use "ulimit -s unlimited" at runtime.
You can disable this check with "check_stack_size F".

Checking processes and threads...
   Determining the default number of threads...
      No default threads set at compilation time: defaulting to 1.
      OpenMP library call suggests 4 threads.
      Hybrid MPI-OpenMP compilation detected.
      Number of MPI processes > 1.
      OMP_NUM_THREADS environment variable present and
      its value matches the one obtained from the OpenMP library call.
      Using this value as default.
      Default threads: 4
      Default applies to threads_max and threads_num_fftboxes.
      Settings in the input file override this default.
   ... done

   Running with 40 MPI processes.
   There are 10 MPI processes running on the same node as the root process.
   Each MPI process is using: 
               1 threads for simulation cell FFTs.
               1 threads for parallel FFT box operations.
               4 threads for loops over batched FFT box operations.
               4 threads in other parallel regions.
... done

Basic input checks...
Resetting ngwf_cg_rotate to TRUE for EDFT calculations
... done

Reading geometry and species blocks from file "3.8637928_GO_manual_4x64graphite.dat" ...
    
  PSINC grid spacing along a1 set to   0.511215680000a0 from input file.
  PSINC grid spacing along a2 set to   0.531284090000a0 from input file.
  PSINC grid spacing along a3 set to   0.507050360000a0 from input file.
  Number of PPD points along a3 set to 1.  This is 
  the default value, it may have been provided also in the input file.
... done
 Writing xyz coordinates to file "3.8637928_GO_manual_4x64graphite.xyz" ... done


--------------------------------------------------------------------------------
---------------------------------- INPUT FILE ----------------------------------
--------------------------------------------------------------------------------

task : singlepoint                                                              
do_properties : true                                                            
dx_format T                                                                     
edft T                                                                          
output_detail VERBOSE                                                           
write_xyz T                                                                     
xc_functional AVV10S                                                            
PSINC_SPACING 0.51121568 0.53128409 0.50705036                                  
paw T                                                                           
pdos_max_l = 2                                                                  
dos_smear  0.1 eV                                                               
popn_calculate T                                                                
PDOS_PSEUDOATOMIC T                                                             
PDOS_REDUCE_SWS F                                                               
PDOS_CONSTRUCT_BASIS F                                                          
PDOS_LOWDIN T                                                                   
PDOS_ORTH_ATOM_BLOCKS F                                                         
PDOS_LCAO_OPTIMIZE F                                                            
pdos_optados_output T                                                           
homo_plot 0                                                                     
lumo_plot 0                                                                     
homo_dens_plot -1                                                               
lumo_dens_plot -1                                                               
%BLOCK SPECIES                                                                  
C C 6 4 9.0                                                                     
%ENDBLOCK SPECIES                                                               
%BLOCK SPECIES_POT                                                              
C "~/pp/paw/c_pbe_abinit.paw"                                                   
%ENDBLOCK SPECIES_POT                                                           
%BLOCK SPECIES_ATOMIC_SET                                                       
C "SOLVE conf=2s2 2p2"                                                          
%ENDBLOCK SPECIES_ATOMIC_SET                                                    
%BLOCK LATTICE_CART                                                             
32.21  0.00  0.00                                                               
0.00 18.59  0.00                                                                
0.00  0.00 73.02                                                                
%ENDBLOCK LATTICE_CART                                                          
%BLOCK POSITIONS_ABS                                                            
C  0.00  0.00  3.65                                                             
C  0.00  0.00 18.25                                                             
C  0.00  0.00 32.86                                                             
C  0.00  0.00 47.46                                                             
C  0.00  0.00 62.06                                                             
C  0.00  4.65  3.65                                                             
C  0.00  4.65 18.25                                                             
C  0.00  4.65 32.86                                                             
C  0.00  4.65 47.46                                                             
C  0.00  4.65 62.06                                                             
C  4.03  2.32  3.65                                                             
C  4.03  2.32 18.25                                                             
C  4.03  2.32 32.86                                                             
C  4.03  2.32 47.46                                                             
C  4.03  2.32 62.06                                                             
C  8.05  0.00  3.65                                                             
C  8.05  0.00 18.25                                                             
C  8.05  0.00 32.86                                                             
C  8.05  0.00 47.46                                                             
C  8.05  0.00 62.06                                                             
C  0.00  9.30  3.65                                                             
C  0.00  9.30 18.25                                                             
C  0.00  9.30 32.86                                                             
C  0.00  9.30 47.46                                                             
C  0.00  9.30 62.06                                                             
C  4.03  6.97  3.65                                                             
C  4.03  6.97 18.25                                                             
C  4.03  6.97 32.86                                                             
C  4.03  6.97 47.46                                                             
C  4.03  6.97 62.06                                                             
C  8.05  4.65  3.65                                                             
C  8.05  4.65 18.25                                                             
C  8.05  4.65 32.86                                                             
C  8.05  4.65 47.46                                                             
C  8.05  4.65 62.06                                                             
C 12.08  2.32  3.65                                                             
C 12.08  2.32 18.25                                                             
C 12.08  2.32 32.86                                                             
C 12.08  2.32 47.46                                                             
C 12.08  2.32 62.06                                                             
C 16.10  0.00  3.65                                                             
C 16.10  0.00 18.25                                                             
C 16.10  0.00 32.86                                                             
C 16.10  0.00 47.46                                                             
C 16.10  0.00 62.06                                                             
C  0.00 13.95  3.65                                                             
C  0.00 13.95 18.25                                                             
C  0.00 13.95 32.86                                                             
C  0.00 13.95 47.46                                                             
C  0.00 13.95 62.06                                                             
C  4.03 11.62  3.65                                                             
C  4.03 11.62 18.25                                                             
C  4.03 11.62 32.86                                                             
C  4.03 11.62 47.46                                                             
C  4.03 11.62 62.06                                                             
C  8.05  9.30  3.65                                                             
C  8.05  9.30 18.25                                                             
C  8.05  9.30 32.86                                                             
C  8.05  9.30 47.46                                                             
C  8.05  9.30 62.06                                                             
C 12.08  6.97  3.65                                                             
C 12.08  6.97 18.25                                                             
C 12.08  6.97 32.86                                                             
C 12.08  6.97 47.46                                                             
C 12.08  6.97 62.06                                                             
C 16.10  4.65  3.65                                                             
C 16.10  4.65 18.25                                                             
C 16.10  4.65 32.86                                                             
C 16.10  4.65 47.46                                                             
C 16.10  4.65 62.06                                                             
C 20.13  2.32  3.65                                                             
C 20.13  2.32 18.25                                                             
C 20.13  2.32 32.86                                                             
C 20.13  2.32 47.46                                                             
C 20.13  2.32 62.06                                                             
C 24.16  0.00  3.65                                                             
C 24.16  0.00 18.25                                                             
C 24.16  0.00 32.86                                                             
C 24.16  0.00 47.46                                                             
C 24.16  0.00 62.06                                                             
C  4.03 16.27  3.65                                                             
C  4.03 16.27 18.25                                                             
C  4.03 16.27 32.86                                                             
C  4.03 16.27 47.46                                                             
C  4.03 16.27 62.06                                                             
C  8.05 13.95  3.65                                                             
C  8.05 13.95 18.25                                                             
C  8.05 13.95 32.86                                                             
C  8.05 13.95 47.46                                                             
C  8.05 13.95 62.06                                                             
C 12.08 11.62  3.65                                                             
C 12.08 11.62 18.25                                                             
C 12.08 11.62 32.86                                                             
C 12.08 11.62 47.46                                                             
C 12.08 11.62 62.06                                                             
C 16.10  9.30  3.65                                                             
C 16.10  9.30 18.25                                                             
C 16.10  9.30 32.86                                                             
C 16.10  9.30 47.46                                                             
C 16.10  9.30 62.06                                                             
C 20.13  6.97  3.65                                                             
C 20.13  6.97 18.25                                                             
C 20.13  6.97 32.86                                                             
C 20.13  6.97 47.46                                                             
C 20.13  6.97 62.06                                                             
C 24.16  4.65  3.65                                                             
C 24.16  4.65 18.25                                                             
C 24.16  4.65 32.86                                                             
C 24.16  4.65 47.46                                                             
C 24.16  4.65 62.06                                                             
C 28.18  2.32  3.65                                                             
C 28.18  2.32 18.25                                                             
C 28.18  2.32 32.86                                                             
C 28.18  2.32 47.46                                                             
C 28.18  2.32 62.06                                                             
C 12.08 16.27  3.65                                                             
C 12.08 16.27 18.25                                                             
C 12.08 16.27 32.86                                                             
C 12.08 16.27 47.46                                                             
C 12.08 16.27 62.06                                                             
C 16.10 13.95  3.65                                                             
C 16.10 13.95 18.25                                                             
C 16.10 13.95 32.86                                                             
C 16.10 13.95 47.46                                                             
C 16.10 13.95 62.06                                                             
C 20.13 11.62  3.65                                                             
C 20.13 11.62 18.25                                                             
C 20.13 11.62 32.86                                                             
C 20.13 11.62 47.46                                                             
C 20.13 11.62 62.06                                                             
C 24.16  9.30  3.65                                                             
C 24.16  9.30 18.25                                                             
C 24.16  9.30 32.86                                                             
C 24.16  9.30 47.46                                                             
C 24.16  9.30 62.06                                                             
C 28.18  6.97  3.65                                                             
C 28.18  6.97 18.25                                                             
C 28.18  6.97 32.86                                                             
C 28.18  6.97 47.46                                                             
C 28.18  6.97 62.06                                                             
C 20.13 16.27  3.65                                                             
C 20.13 16.27 18.25                                                             
C 20.13 16.27 32.86                                                             
C 20.13 16.27 47.46                                                             
C 20.13 16.27 62.06                                                             
C 24.16 13.95  3.65                                                             
C 24.16 13.95 18.25                                                             
C 24.16 13.95 32.86                                                             
C 24.16 13.95 47.46                                                             
C 24.16 13.95 62.06                                                             
C 28.18 11.62  3.65                                                             
C 28.18 11.62 18.25                                                             
C 28.18 11.62 32.86                                                             
C 28.18 11.62 47.46                                                             
C 28.18 11.62 62.06                                                             
C 28.18 16.27  3.65                                                             
C 28.18 16.27 18.25                                                             
C 28.18 16.27 32.86                                                             
C 28.18 16.27 47.46                                                             
C 28.18 16.27 62.06                                                             
C  0.00  0.00 10.95                                                             
C  0.00  0.00 25.56                                                             
C  0.00  0.00 40.16                                                             
C  0.00  0.00 54.76                                                             
C  0.00  0.00 69.36                                                             
C  0.00  4.65 10.95                                                             
C  0.00  4.65 25.56                                                             
C  0.00  4.65 40.16                                                             
C  0.00  4.65 54.76                                                             
C  0.00  4.65 69.36                                                             
C  4.03  2.32 10.95                                                             
C  4.03  2.32 25.56                                                             
C  4.03  2.32 40.16                                                             
C  4.03  2.32 54.76                                                             
C  4.03  2.32 69.36                                                             
C  8.05  0.00 10.95                                                             
C  8.05  0.00 25.56                                                             
C  8.05  0.00 40.16                                                             
C  8.05  0.00 54.76                                                             
C  8.05  0.00 69.36                                                             
C  0.00  9.30 10.95                                                             
C  0.00  9.30 25.56                                                             
C  0.00  9.30 40.16                                                             
C  0.00  9.30 54.76                                                             
C  0.00  9.30 69.36                                                             
C  4.03  6.97 10.95                                                             
C  4.03  6.97 25.56                                                             
C  4.03  6.97 40.16                                                             
C  4.03  6.97 54.76                                                             
C  4.03  6.97 69.36                                                             
C  8.05  4.65 10.95                                                             
C  8.05  4.65 25.56                                                             
C  8.05  4.65 40.16                                                             
C  8.05  4.65 54.76                                                             
C  8.05  4.65 69.36                                                             
C 12.08  2.32 10.95                                                             
C 12.08  2.32 25.56                                                             
C 12.08  2.32 40.16                                                             
C 12.08  2.32 54.76                                                             
C 12.08  2.32 69.36                                                             
C 16.10  0.00 10.95                                                             
C 16.10  0.00 25.56                                                             
C 16.10  0.00 40.16                                                             
C 16.10  0.00 54.76                                                             
C 16.10  0.00 69.36                                                             
C  0.00 13.95 10.95                                                             
C  0.00 13.95 25.56                                                             
C  0.00 13.95 40.16                                                             
C  0.00 13.95 54.76                                                             
C  0.00 13.95 69.36                                                             
C  4.03 11.62 10.95                                                             
C  4.03 11.62 25.56                                                             
C  4.03 11.62 40.16                                                             
C  4.03 11.62 54.76                                                             
C  4.03 11.62 69.36                                                             
C  8.05  9.30 10.95                                                             
C  8.05  9.30 25.56                                                             
C  8.05  9.30 40.16                                                             
C  8.05  9.30 54.76                                                             
C  8.05  9.30 69.36                                                             
C 12.08  6.97 10.95                                                             
C 12.08  6.97 25.56                                                             
C 12.08  6.97 40.16                                                             
C 12.08  6.97 54.76                                                             
C 12.08  6.97 69.36                                                             
C 16.10  4.65 10.95                                                             
C 16.10  4.65 25.56                                                             
C 16.10  4.65 40.16                                                             
C 16.10  4.65 54.76                                                             
C 16.10  4.65 69.36                                                             
C 20.13  2.32 10.95                                                             
C 20.13  2.32 25.56                                                             
C 20.13  2.32 40.16                                                             
C 20.13  2.32 54.76                                                             
C 20.13  2.32 69.36                                                             
C 24.16  0.00 10.95                                                             
C 24.16  0.00 25.56                                                             
C 24.16  0.00 40.16                                                             
C 24.16  0.00 54.76                                                             
C 24.16  0.00 69.36                                                             
C  4.03 16.27 10.95                                                             
C  4.03 16.27 25.56                                                             
C  4.03 16.27 40.16                                                             
C  4.03 16.27 54.76                                                             
C  4.03 16.27 69.36                                                             
C  8.05 13.95 10.95                                                             
C  8.05 13.95 25.56                                                             
C  8.05 13.95 40.16                                                             
C  8.05 13.95 54.76                                                             
C  8.05 13.95 69.36                                                             
C 12.08 11.62 10.95                                                             
C 12.08 11.62 25.56                                                             
C 12.08 11.62 40.16                                                             
C 12.08 11.62 54.76                                                             
C 12.08 11.62 69.36                                                             
C 16.10  9.30 10.95                                                             
C 16.10  9.30 25.56                                                             
C 16.10  9.30 40.16                                                             
C 16.10  9.30 54.76                                                             
C 16.10  9.30 69.36                                                             
C 20.13  6.97 10.95                                                             
C 20.13  6.97 25.56                                                             
C 20.13  6.97 40.16                                                             
C 20.13  6.97 54.76                                                             
C 20.13  6.97 69.36                                                             
C 24.16  4.65 10.95                                                             
C 24.16  4.65 25.56                                                             
C 24.16  4.65 40.16                                                             
C 24.16  4.65 54.76                                                             
C 24.16  4.65 69.36                                                             
C 28.18  2.32 10.95                                                             
C 28.18  2.32 25.56                                                             
C 28.18  2.32 40.16                                                             
C 28.18  2.32 54.76                                                             
C 28.18  2.32 69.36                                                             
C 12.08 16.27 10.95                                                             
C 12.08 16.27 25.56                                                             
C 12.08 16.27 40.16                                                             
C 12.08 16.27 54.76                                                             
C 12.08 16.27 69.36                                                             
C 16.10 13.95 10.95                                                             
C 16.10 13.95 25.56                                                             
C 16.10 13.95 40.16                                                             
C 16.10 13.95 54.76                                                             
C 16.10 13.95 69.36                                                             
C 20.13 11.62 10.95                                                             
C 20.13 11.62 25.56                                                             
C 20.13 11.62 40.16                                                             
C 20.13 11.62 54.76                                                             
C 20.13 11.62 69.36                                                             
C 24.16  9.30 10.95                                                             
C 24.16  9.30 25.56                                                             
C 24.16  9.30 40.16                                                             
C 24.16  9.30 54.76                                                             
C 24.16  9.30 69.36                                                             
C 28.18  6.97 10.95                                                             
C 28.18  6.97 25.56                                                             
C 28.18  6.97 40.16                                                             
C 28.18  6.97 54.76                                                             
C 28.18  6.97 69.36                                                             
C 20.13 16.27 10.95                                                             
C 20.13 16.27 25.56                                                             
C 20.13 16.27 40.16                                                             
C 20.13 16.27 54.76                                                             
C 20.13 16.27 69.36                                                             
C 24.16 13.95 10.95                                                             
C 24.16 13.95 25.56                                                             
C 24.16 13.95 40.16                                                             
C 24.16 13.95 54.76                                                             
C 24.16 13.95 69.36                                                             
C 28.18 11.62 10.95                                                             
C 28.18 11.62 25.56                                                             
C 28.18 11.62 40.16                                                             
C 28.18 11.62 54.76                                                             
C 28.18 11.62 69.36                                                             
C 28.18 16.27 10.95                                                             
C 28.18 16.27 25.56                                                             
C 28.18 16.27 40.16                                                             
C 28.18 16.27 54.76                                                             
C 28.18 16.27 69.36                                                             
C  1.34  2.32  3.65                                                             
C  1.34  2.32 18.25                                                             
C  1.34  2.32 32.86                                                             
C  1.34  2.32 47.46                                                             
C  1.34  2.32 62.06                                                             
C  5.37  0.00  3.65                                                             
C  5.37  0.00 18.25                                                             
C  5.37  0.00 32.86                                                             
C  5.37  0.00 47.46                                                             
C  5.37  0.00 62.06                                                             
C  1.34  6.97  3.65                                                             
C  1.34  6.97 18.25                                                             
C  1.34  6.97 32.86                                                             
C  1.34  6.97 47.46                                                             
C  1.34  6.97 62.06                                                             
C  5.37  4.65  3.65                                                             
C  5.37  4.65 18.25                                                             
C  5.37  4.65 32.86                                                             
C  5.37  4.65 47.46                                                             
C  5.37  4.65 62.06                                                             
C  9.39  2.32  3.65                                                             
C  9.39  2.32 18.25                                                             
C  9.39  2.32 32.86                                                             
C  9.39  2.32 47.46                                                             
C  9.39  2.32 62.06                                                             
C 13.42  0.00  3.65                                                             
C 13.42  0.00 18.25                                                             
C 13.42  0.00 32.86                                                             
C 13.42  0.00 47.46                                                             
C 13.42  0.00 62.06                                                             
C  1.34 11.62  3.65                                                             
C  1.34 11.62 18.25                                                             
C  1.34 11.62 32.86                                                             
C  1.34 11.62 47.46                                                             
C  1.34 11.62 62.06                                                             
C  5.37  9.30  3.65                                                             
C  5.37  9.30 18.25                                                             
C  5.37  9.30 32.86                                                             
C  5.37  9.30 47.46                                                             
C  5.37  9.30 62.06                                                             
C  9.39  6.97  3.65                                                             
C  9.39  6.97 18.25                                                             
C  9.39  6.97 32.86                                                             
C  9.39  6.97 47.46                                                             
C  9.39  6.97 62.06                                                             
C 13.42  4.65  3.65                                                             
C 13.42  4.65 18.25                                                             
C 13.42  4.65 32.86                                                             
C 13.42  4.65 47.46                                                             
C 13.42  4.65 62.06                                                             
C 17.45  2.32  3.65                                                             
C 17.45  2.32 18.25                                                             
C 17.45  2.32 32.86                                                             
C 17.45  2.32 47.46                                                             
C 17.45  2.32 62.06                                                             
C 21.47  0.00  3.65                                                             
C 21.47  0.00 18.25                                                             
C 21.47  0.00 32.86                                                             
C 21.47  0.00 47.46                                                             
C 21.47  0.00 62.06                                                             
C  1.34 16.27  3.65                                                             
C  1.34 16.27 18.25                                                             
C  1.34 16.27 32.86                                                             
C  1.34 16.27 47.46                                                             
C  1.34 16.27 62.06                                                             
C  5.37 13.95  3.65                                                             
C  5.37 13.95 18.25                                                             
C  5.37 13.95 32.86                                                             
C  5.37 13.95 47.46                                                             
C  5.37 13.95 62.06                                                             
C  9.39 11.62  3.65                                                             
C  9.39 11.62 18.25                                                             
C  9.39 11.62 32.86                                                             
C  9.39 11.62 47.46                                                             
C  9.39 11.62 62.06                                                             
C 13.42  9.30  3.65                                                             
C 13.42  9.30 18.25                                                             
C 13.42  9.30 32.86                                                             
C 13.42  9.30 47.46                                                             
C 13.42  9.30 62.06                                                             
C 17.45  6.97  3.65                                                             
C 17.45  6.97 18.25                                                             
C 17.45  6.97 32.86                                                             
C 17.45  6.97 47.46                                                             
C 17.45  6.97 62.06                                                             
C 21.47  4.65  3.65                                                             
C 21.47  4.65 18.25                                                             
C 21.47  4.65 32.86                                                             
C 21.47  4.65 47.46                                                             
C 21.47  4.65 62.06                                                             
C 25.50  2.32  3.65                                                             
C 25.50  2.32 18.25                                                             
C 25.50  2.32 32.86                                                             
C 25.50  2.32 47.46                                                             
C 25.50  2.32 62.06                                                             
C 29.52  0.00  3.65                                                             
C 29.52  0.00 18.25                                                             
C 29.52  0.00 32.86                                                             
C 29.52  0.00 47.46                                                             
C 29.52  0.00 62.06                                                             
C  9.39 16.27  3.65                                                             
C  9.39 16.27 18.25                                                             
C  9.39 16.27 32.86                                                             
C  9.39 16.27 47.46                                                             
C  9.39 16.27 62.06                                                             
C 13.42 13.95  3.65                                                             
C 13.42 13.95 18.25                                                             
C 13.42 13.95 32.86                                                             
C 13.42 13.95 47.46                                                             
C 13.42 13.95 62.06                                                             
C 17.45 11.62  3.65                                                             
C 17.45 11.62 18.25                                                             
C 17.45 11.62 32.86                                                             
C 17.45 11.62 47.46                                                             
C 17.45 11.62 62.06                                                             
C 21.47  9.30  3.65                                                             
C 21.47  9.30 18.25                                                             
C 21.47  9.30 32.86                                                             
C 21.47  9.30 47.46                                                             
C 21.47  9.30 62.06                                                             
C 25.50  6.97  3.65                                                             
C 25.50  6.97 18.25                                                             
C 25.50  6.97 32.86                                                             
C 25.50  6.97 47.46                                                             
C 25.50  6.97 62.06                                                             
C 29.52  4.65  3.65                                                             
C 29.52  4.65 18.25                                                             
C 29.52  4.65 32.86                                                             
C 29.52  4.65 47.46                                                             
C 29.52  4.65 62.06                                                             
C 17.45 16.27  3.65                                                             
C 17.45 16.27 18.25                                                             
C 17.45 16.27 32.86                                                             
C 17.45 16.27 47.46                                                             
C 17.45 16.27 62.06                                                             
C 21.47 13.95  3.65                                                             
C 21.47 13.95 18.25                                                             
C 21.47 13.95 32.86                                                             
C 21.47 13.95 47.46                                                             
C 21.47 13.95 62.06                                                             
C 25.50 11.62  3.65                                                             
C 25.50 11.62 18.25                                                             
C 25.50 11.62 32.86                                                             
C 25.50 11.62 47.46                                                             
C 25.50 11.62 62.06                                                             
C 29.52  9.30  3.65                                                             
C 29.52  9.30 18.25                                                             
C 29.52  9.30 32.86                                                             
C 29.52  9.30 47.46                                                             
C 29.52  9.30 62.06                                                             
C 25.50 16.27  3.65                                                             
C 25.50 16.27 18.25                                                             
C 25.50 16.27 32.86                                                             
C 25.50 16.27 47.46                                                             
C 25.50 16.27 62.06                                                             
C 29.52 13.95  3.65                                                             
C 29.52 13.95 18.25                                                             
C 29.52 13.95 32.86                                                             
C 29.52 13.95 47.46                                                             
C 29.52 13.95 62.06                                                             
C  2.68  0.00 10.95                                                             
C  2.68  0.00 25.56                                                             
C  2.68  0.00 40.16                                                             
C  2.68  0.00 54.76                                                             
C  2.68  0.00 69.36                                                             
C  2.68  4.65 10.95                                                             
C  2.68  4.65 25.56                                                             
C  2.68  4.65 40.16                                                             
C  2.68  4.65 54.76                                                             
C  2.68  4.65 69.36                                                             
C  6.71  2.32 10.95                                                             
C  6.71  2.32 25.56                                                             
C  6.71  2.32 40.16                                                             
C  6.71  2.32 54.76                                                             
C  6.71  2.32 69.36                                                             
C 10.74  0.00 10.95                                                             
C 10.74  0.00 25.56                                                             
C 10.74  0.00 40.16                                                             
C 10.74  0.00 54.76                                                             
C 10.74  0.00 69.36                                                             
C  2.68  9.30 10.95                                                             
C  2.68  9.30 25.56                                                             
C  2.68  9.30 40.16                                                             
C  2.68  9.30 54.76                                                             
C  2.68  9.30 69.36                                                             
C  6.71  6.97 10.95                                                             
C  6.71  6.97 25.56                                                             
C  6.71  6.97 40.16                                                             
C  6.71  6.97 54.76                                                             
C  6.71  6.97 69.36                                                             
C 10.74  4.65 10.95                                                             
C 10.74  4.65 25.56                                                             
C 10.74  4.65 40.16                                                             
C 10.74  4.65 54.76                                                             
C 10.74  4.65 69.36                                                             
C 14.76  2.32 10.95                                                             
C 14.76  2.32 25.56                                                             
C 14.76  2.32 40.16                                                             
C 14.76  2.32 54.76                                                             
C 14.76  2.32 69.36                                                             
C 18.79  0.00 10.95                                                             
C 18.79  0.00 25.56                                                             
C 18.79  0.00 40.16                                                             
C 18.79  0.00 54.76                                                             
C 18.79  0.00 69.36                                                             
C  2.68 13.95 10.95                                                             
C  2.68 13.95 25.56                                                             
C  2.68 13.95 40.16                                                             
C  2.68 13.95 54.76                                                             
C  2.68 13.95 69.36                                                             
C  6.71 11.62 10.95                                                             
C  6.71 11.62 25.56                                                             
C  6.71 11.62 40.16                                                             
C  6.71 11.62 54.76                                                             
C  6.71 11.62 69.36                                                             
C 10.74  9.30 10.95                                                             
C 10.74  9.30 25.56                                                             
C 10.74  9.30 40.16                                                             
C 10.74  9.30 54.76                                                             
C 10.74  9.30 69.36                                                             
C 14.76  6.97 10.95                                                             
C 14.76  6.97 25.56                                                             
C 14.76  6.97 40.16                                                             
C 14.76  6.97 54.76                                                             
C 14.76  6.97 69.36                                                             
C 18.79  4.65 10.95                                                             
C 18.79  4.65 25.56                                                             
C 18.79  4.65 40.16                                                             
C 18.79  4.65 54.76                                                             
C 18.79  4.65 69.36                                                             
C 22.81  2.32 10.95                                                             
C 22.81  2.32 25.56                                                             
C 22.81  2.32 40.16                                                             
C 22.81  2.32 54.76                                                             
C 22.81  2.32 69.36                                                             
C 26.84  0.00 10.95                                                             
C 26.84  0.00 25.56                                                             
C 26.84  0.00 40.16                                                             
C 26.84  0.00 54.76                                                             
C 26.84  0.00 69.36                                                             
C  6.71 16.27 10.95                                                             
C  6.71 16.27 25.56                                                             
C  6.71 16.27 40.16                                                             
C  6.71 16.27 54.76                                                             
C  6.71 16.27 69.36                                                             
C 10.74 13.95 10.95                                                             
C 10.74 13.95 25.56                                                             
C 10.74 13.95 40.16                                                             
C 10.74 13.95 54.76                                                             
C 10.74 13.95 69.36                                                             
C 14.76 11.62 10.95                                                             
C 14.76 11.62 25.56                                                             
C 14.76 11.62 40.16                                                             
C 14.76 11.62 54.76                                                             
C 14.76 11.62 69.36                                                             
C 18.79  9.30 10.95                                                             
C 18.79  9.30 25.56                                                             
C 18.79  9.30 40.16                                                             
C 18.79  9.30 54.76                                                             
C 18.79  9.30 69.36                                                             
C 22.81  6.97 10.95                                                             
C 22.81  6.97 25.56                                                             
C 22.81  6.97 40.16                                                             
C 22.81  6.97 54.76                                                             
C 22.81  6.97 69.36                                                             
C 26.84  4.65 10.95                                                             
C 26.84  4.65 25.56                                                             
C 26.84  4.65 40.16                                                             
C 26.84  4.65 54.76                                                             
C 26.84  4.65 69.36                                                             
C 30.86  2.32 10.95                                                             
C 30.86  2.32 25.56                                                             
C 30.86  2.32 40.16                                                             
C 30.86  2.32 54.76                                                             
C 30.86  2.32 69.36                                                             
C 14.76 16.27 10.95                                                             
C 14.76 16.27 25.56                                                             
C 14.76 16.27 40.16                                                             
C 14.76 16.27 54.76                                                             
C 14.76 16.27 69.36                                                             
C 18.79 13.95 10.95                                                             
C 18.79 13.95 25.56                                                             
C 18.79 13.95 40.16                                                             
C 18.79 13.95 54.76                                                             
C 18.79 13.95 69.36                                                             
C 22.81 11.62 10.95                                                             
C 22.81 11.62 25.56                                                             
C 22.81 11.62 40.16                                                             
C 22.81 11.62 54.76                                                             
C 22.81 11.62 69.36                                                             
C 26.84  9.30 10.95                                                             
C 26.84  9.30 25.56                                                             
C 26.84  9.30 40.16                                                             
C 26.84  9.30 54.76                                                             
C 26.84  9.30 69.36                                                             
C 30.86  6.97 10.95                                                             
C 30.86  6.97 25.56                                                             
C 30.86  6.97 40.16                                                             
C 30.86  6.97 54.76                                                             
C 30.86  6.97 69.36                                                             
C 22.81 16.27 10.95                                                             
C 22.81 16.27 25.56                                                             
C 22.81 16.27 40.16                                                             
C 22.81 16.27 54.76                                                             
C 22.81 16.27 69.36                                                             
C 26.84 13.95 10.95                                                             
C 26.84 13.95 25.56                                                             
C 26.84 13.95 40.16                                                             
C 26.84 13.95 54.76                                                             
C 26.84 13.95 69.36                                                             
C 30.86 11.62 10.95                                                             
C 30.86 11.62 25.56                                                             
C 30.86 11.62 40.16                                                             
C 30.86 11.62 54.76                                                             
C 30.86 11.62 69.36                                                             
C 30.86 16.27 10.95                                                             
C 30.86 16.27 25.56                                                             
C 30.86 16.27 40.16                                                             
C 30.86 16.27 54.76                                                             
C 30.86 16.27 69.36                                                             
%ENDBLOCK POSITIONS_ABS                                                         

--------------------------------------------------------------------------------
-------------------------------- END INPUT FILE --------------------------------
--------------------------------------------------------------------------------


 
<<<<<<<<<<<<<<<<<<<<<<<<<<<<<<<<< Full system >>>>>>>>>>>>>>>>>>>>>>>>>>>>>>>>>>
<<<<<<<<<<<<<<<<<<<<<<<<<<< PAW Dataset information >>>>>>>>>>>>>>>>>>>>>>>>>>>
File: ~/pp/paw/c_pbe_abinit.paw; rc = 1.25 bohr; shape type =  3; rshape = 1.25 bohr;
  Atomic number:  6;  ionic charge:  4.000000
    Partial Wave 1: l = 0
    Partial Wave 2: l = 0
    Partial Wave 3: l = 1
    Partial Wave 4: l = 1
  Core charge supplied for Nonlinear Core Corrections
<<<<<<<<<<<<<<<<<<<<<<<<<<<<<<<<<<<<<<< >>>>>>>>>>>>>>>>>>>>>>>>>>>>>>>>>>>>>>>

-------------------------- Atom counting information ---------------------------
Symbol    Natoms    Nngwfs    Nprojs
  C        640      2560      5120
.......   ......    ......    ......
Totals:    640      2560      5120
--------------------------------------------------------------------------------

=============================== PSINC grid sizes ===============================
                      Simulation cell:   63 x  35 x 144
                              FFT-box:   63 x  35 x 117
                                  PPD:    7 x   5 x   1
Grid space d1=  0.511269841270a0 (KE cutoff=  29.06054Eh = 790.77748eV)
Grid space d2=  0.531142857143a0 (KE cutoff=  26.92659Eh = 732.70972eV)
Grid space d3=  0.507083333333a0 (KE cutoff=  29.54237Eh = 803.88878eV)
================================================================================
  
WARNING in cell_grid_distribute:
Average of less than one 23-slab per node, so workload cannot be
equally balanced between nodes.

********************* Fourier parallelisation information **********************
       Coarse grid (whole simulation cell) dimensions:     63    35   144
          Real-space ('12') slabs/node (min max mean):      3     4     3
         Recip-space ('23') slabs/node (min max mean):      0     1     0
********************************************************************************

********************* Fourier parallelisation information **********************
       Double grid (whole simulation cell) dimensions:    126    70   288
          Real-space ('12') slabs/node (min max mean):      7     8     7
         Recip-space ('23') slabs/node (min max mean):      1     2     1
********************************************************************************

Atom SCF Calculation for C  : Z (AE atom) =   6 : Z (PS atom) =   4
Config String: 2s2 2p2
Orbitals (num,occ):  2     2.00 2.00
Orbitals   (num,l):  2        0    1
Real-space Grid (nr,dr,rmax): 1293    0.0069659443    9.0000000000
Spherical Bessel Basis (nsws,lmax,cutoff):   37    2  161.4736382572
Confining potential (l,width,scale):  0    3.0000000000  100.0000000000
Confining potential (l,width,scale):  1    3.0000000000  100.0000000000
  1         -5.4129360987   -1.2444937266    4.5135257941   -1.5420271367
  2         -5.3444202281   -1.3377187790    4.4131101426   -1.5071921700
  3         -5.3525226456   -1.3566567794    4.3924752240   -1.5004938544
  4         -5.3561013121   -1.3623552809    4.3862114699   -1.4986199617
  5         -5.3580093800   -1.3653574582    4.3828991843   -1.4976654093
  6         -5.3590276761   -1.3669475005    4.3811409016   -1.4971696795
  7         -5.3595688314   -1.3677934914    4.3802040659   -1.4969088858
  8         -5.3598556216   -1.3682449178    4.3797036984   -1.4967706290
  9         -5.3600074081   -1.3684862338    4.3794360452   -1.4966970063
 10         -5.3600877081   -1.3686153812    4.3792927313   -1.4966576988
 11         -5.3601301919   -1.3686845537    4.3792159394   -1.4966366788
 12         -5.3601526758   -1.3687216261    4.3791747687   -1.4966254262
 13         -5.3601645804   -1.3687415049    4.3791526850   -1.4966193980
 14         -5.3601708871   -1.3687521691    4.3791408341   -1.4966161667
 15         -5.3601742301   -1.3687578926    4.3791344719   -1.4966144337
 16         -5.3601760032   -1.3687609656    4.3791310549   -1.4966135039
 17         -5.3601769442   -1.3687626162    4.3791292190   -1.4966130048
 18         -5.3601774440   -1.3687635032    4.3791282322   -1.4966127369
 19         -5.3601777096   -1.3687639799    4.3791277016   -1.4966125929
 20         -5.3601778508   -1.3687642363    4.3791274162   -1.4966125155
 21         -5.3601779259   -1.3687643743    4.3791272626   -1.4966124740
Atom SCF converged after  21 iterations to a total energy of     -5.36017793

Determining parallel strategy ...
... using space-filling curve
... NGWF load balancing: max     64;  min     64;  average     64
... Projector load balancing: max    128;  min    128;  average    128
... done
Calculating Ewald energy ...
              Ewald: real-space energy =    9490.867672
        Ewald: reciprocal-space energy =       0.535212
         Ewald: (sum_charge)**2 Energy =   10793.259758
         Ewald: (sum_charge**2) Energy =     853.282105
                          Ewald Energy =   -2155.138980
Basis initialisation ...... NGWF spheres initialised
... Projector spheres initialised
... NGWF tight boxes initialised
... Projector tight boxes initialised
... Tight-boxes gathered
... NGWF basis size (local,global):     692628  27897056
... PAW projector initialisation
... done

============================= Charge Augmentation ==============================
                           Aug box size:   11 x  11 x  11
================================================================================

========================== Sparse matrix information ===========================
                        Overlap matrix filling:  40.31%
                        Density kernel filling: 100.00%
              NGWF-Proj overlap matrix filling:  12.19%
                    Aug Overlap matrix filling:  47.03%
                    Hamiltonian matrix filling:  47.03%
                  NGWF diagonal matrix filling:   0.16%
                             KS matrix filling: 100.00% 
                           KSKS matrix filling: 100.00% 
================================================================================

Sparse matrix initialisation ... done
NGWF initialisation ...... done
============ Calculation of NGWF S^-1 using Hotelling algorithm ================ 
         Iteration  |  Frobenius norm and Maximum abs value    (of I-S*S_n^-1)   
               1       0.48920084E+02     0.97424744E+00
               2       0.47602593E+02     0.95035257E+00
               3       0.45661551E+02     0.90731383E+00
               4       0.43191906E+02     0.83597405E+00
               5       0.40268609E+02     0.73124409E+00
               6       0.36928101E+02     0.67238673E+00
               7       0.33528949E+02     0.62690590E+00
               8       0.30302289E+02     0.58889238E+00
               9       0.26785302E+02     0.54537505E+00
              10       0.22288313E+02     0.47553954E+00
              11       0.16425314E+02     0.36493814E+00
              12       0.97112336E+01     0.22044430E+00
              13       0.39007331E+01     0.86228572E-01
              14       0.75252142E+00     0.15235038E-01
              15       0.33215181E-01     0.58482337E-03
              16       0.82970145E-04     0.11047044E-05
              17       0.78612370E-09     0.63685723E-11
              18       0.75392461E-13     0.38857806E-14
================================================================================
Calculating core density ...
================================= Core Density =================================
               Core den box size:   21 x  21 x  21
================================================================================
 ... done
Up spin density kernel initialisation ...... done

Writing density kernel to file "3.8637928_GO_manual_4x64graphite.dkn" ... done

>>> Optimising kernel for current NGWFs:

--------------------------- Ensemble-DFT optimisation --------------------------
Running ScaLAPACK on   40 processor(s).

--------------------------------------------------------------------------------
  Iter                              Commutator    Free_energy(A=E-TS)     DeltaA
#    0                          0.000026363020   -3615.55378204943008  -3.62E+03

Step                       =       0.381966011250
Energy                     =   -3615.553758232870
Entropy (-TS)              =      -0.000023816606
Free energy (A=E-TS)       =   -3615.553782049430
Est. 0K Energy 0.5*(E+A)   =   -3615.553770141150
Residual Non-orthogonality =       0.000000000000
Residual N_electrons       =       0.000000000045

Spin          Integrated_Ne            Fermi_level     Delta_Fermi_level
   1      2559.999999999699         0.150475051263              1.50E-01

                           Spin 1          
     Orb      H-eigenvalues     Occupancies
       1 |    -0.5746690871    1.0000000000 | 
                          ------
    1276 |     0.1145813121    0.9999880450 | 
    1277 |     0.1151321680    0.9999857736 | 
    1278 |     0.1152060627    0.9999854378 | 
    1279 |     0.1152162441    0.9999853909 | 
    1280 |     0.1157681938    0.9999826093 | 
                 - Gap at zero temperature -
    1281 |     0.1872414876    0.0000090755 | 
    1282 |     0.1872527622    0.0000090432 | 
    1283 |     0.1872611122    0.0000090194 | 
    1284 |     0.1873218100    0.0000088482 | 
    1285 |     0.1873369848    0.0000088059 | 
                          ------
    2560 |     0.9915981341    0.0000000000 | 

                       |  Abs_value |  Threshold | Converged
     Delta_Free_energy |   3.62E+03 |   1.00E-06 |        No
     Delta_Energy      |   3.62E+03 |   1.00E-04 |        No
     Delta_Entropy     |   2.38E-05 |   1.00E-04 |       Yes
     Commutator        |   2.64E-05 |   1.00E-05 |        No
     Delta_Fermi_level |   1.50E-01 |   1.00E-03 |        No

  Line search of the free energy minimum:
  Step_type        Step             Free_energy   Predicted_free_energy
.   Initial    0.000000    -3615.55378204943008
.    Trial1    0.381966    -3615.55462659229579
.    Trial2    0.618034    -3615.55470032922676
. Quadratic    0.550837    -3615.55471434199899    -3615.55471420142430

--------------------------------------------------------------------------------
  Iter                              Commutator    Free_energy(A=E-TS)     DeltaA
#    1                          0.000015745731   -3615.55471434199899  -9.32E-04

Step                       =       0.550836647514
Energy                     =   -3615.554689391216
Entropy (-TS)              =      -0.000024950938
Free energy (A=E-TS)       =   -3615.554714341999
Est. 0K Energy 0.5*(E+A)   =   -3615.554701866608
Residual Non-orthogonality =       0.000000000000
Residual N_electrons       =       0.000000000155

Spin          Integrated_Ne            Fermi_level     Delta_Fermi_level
   1      2559.999999998943         0.147029285665             -3.45E-03

                           Spin 1          
     Orb      H-eigenvalues     Occupancies
       1 |    -0.5785215187    1.0000000000 | 
                          ------
    1276 |     0.1113459997    0.9999872235 | 
    1277 |     0.1118161288    0.9999851788 | 
    1278 |     0.1118337435    0.9999850961 | 
    1279 |     0.1118799048    0.9999848773 | 
    1280 |     0.1123684882    0.9999823545 | 
                 - Gap at zero temperature -
    1281 |     0.1835693580    0.0000097480 | 
    1282 |     0.1835828189    0.0000097066 | 
    1283 |     0.1835992467    0.0000096564 | 
    1284 |     0.1836636026    0.0000094621 | 
    1285 |     0.1836777887    0.0000094198 | 
                          ------
    2560 |     0.9868955609    0.0000000000 | 

                       |  Abs_value |  Threshold | Converged
     Delta_Free_energy |   9.32E-04 |   1.00E-06 |        No
     Delta_Energy      |   9.31E-04 |   1.00E-04 |        No
     Delta_Entropy     |   1.13E-06 |   1.00E-04 |       Yes
     Commutator        |   1.57E-05 |   1.00E-05 |        No
     Delta_Fermi_level |   3.45E-03 |   1.00E-03 |        No

  Line search of the free energy minimum:
  Step_type        Step             Free_energy   Predicted_free_energy
.   Initial    0.000000    -3615.55471434199899
.    Trial1    0.550837    -3615.55465760407969
.    Trial2    0.210401    -3615.55495107111619
. Quadratic    0.261142    -3615.55496041904325    -3615.55496035940860

--------------------------------------------------------------------------------
  Iter                              Commutator    Free_energy(A=E-TS)     DeltaA
#    2                          0.000008379852   -3615.55496041904325  -2.46E-04

Step                       =       0.261142242837
Energy                     =   -3615.554935220721
Entropy (-TS)              =      -0.000025198390
Free energy (A=E-TS)       =   -3615.554960419043
Est. 0K Energy 0.5*(E+A)   =   -3615.554947819882
Residual Non-orthogonality =       0.000000000000
Residual N_electrons       =       0.000000000067

Spin          Integrated_Ne            Fermi_level     Delta_Fermi_level
   1      2559.999999999539         0.146291211599             -7.38E-04

                           Spin 1          
     Orb      H-eigenvalues     Occupancies
       1 |    -0.5793516597    1.0000000000 | 
                          ------
    1276 |     0.1106108581    0.9999872117 | 
    1277 |     0.1111239699    0.9999849623 | 
    1278 |     0.1111413037    0.9999848798 | 
    1279 |     0.1111419828    0.9999848766 | 
    1280 |     0.1116733395    0.9999821137 | 
                 - Gap at zero temperature -
    1281 |     0.1828166112    0.0000097932 | 
    1282 |     0.1828294928    0.0000097535 | 
    1283 |     0.1828471360    0.0000096993 | 
    1284 |     0.1829129790    0.0000094997 | 
    1285 |     0.1829277802    0.0000094554 | 
                          ------
    2560 |     0.9858757164    0.0000000000 | 

                       |  Abs_value |  Threshold | Converged
     Delta_Free_energy |   2.46E-04 |   1.00E-06 |        No
     Delta_Energy      |   2.46E-04 |   1.00E-04 |        No
     Delta_Entropy     |   2.47E-07 |   1.00E-04 |       Yes
     Commutator        |   8.38E-06 |   1.00E-05 |       Yes
     Delta_Fermi_level |   7.38E-04 |   1.00E-03 |       Yes

  Line search of the free energy minimum:
  Step_type        Step             Free_energy   Predicted_free_energy
.   Initial    0.000000    -3615.55496041904325
.    Trial1    0.261142    -3615.55502929971135
.    Trial2    0.543361    -3615.55503466108985
. Quadratic    0.423337    -3615.55504116122211    -3615.55504115043686

--------------------------------------------------------------------------------
  Iter                              Commutator    Free_energy(A=E-TS)     DeltaA
#    3                          0.000005764100   -3615.55504116122211  -8.07E-05

Step                       =       0.423337398514
Energy                     =   -3615.555015668722
Entropy (-TS)              =      -0.000025492698
Free energy (A=E-TS)       =   -3615.555041161222
Est. 0K Energy 0.5*(E+A)   =   -3615.555028414972
Residual Non-orthogonality =       0.000000000000
Residual N_electrons       =       0.000000000198

Spin          Integrated_Ne            Fermi_level     Delta_Fermi_level
   1      2559.999999998641         0.145402627160             -8.89E-04

                           Spin 1          
     Orb      H-eigenvalues     Occupancies
       1 |    -0.5803398977    1.0000000000 | 
                          ------
    1276 |     0.1097435298    0.9999871255 | 
    1277 |     0.1102700431    0.9999847969 | 
    1278 |     0.1102741476    0.9999847771 | 
    1279 |     0.1102925436    0.9999846885 | 
    1280 |     0.1108199996    0.9999819136 | 
                 - Gap at zero temperature -
    1281 |     0.1818964777    0.0000098913 | 
    1282 |     0.1819087043    0.0000098532 | 
    1283 |     0.1819276211    0.0000097945 | 
    1284 |     0.1819946293    0.0000095894 | 
    1285 |     0.1820101728    0.0000095425 | 
                          ------
    2560 |     0.9846677426    0.0000000000 | 

                       |  Abs_value |  Threshold | Converged
     Delta_Free_energy |   8.07E-05 |   1.00E-06 |        No
     Delta_Energy      |   8.04E-05 |   1.00E-04 |       Yes
     Delta_Entropy     |   2.94E-07 |   1.00E-04 |       Yes
     Commutator        |   5.76E-06 |   1.00E-05 |       Yes
     Delta_Fermi_level |   8.89E-04 |   1.00E-03 |       Yes

  Line search of the free energy minimum:
  Step_type        Step             Free_energy   Predicted_free_energy
.   Initial    0.000000    -3615.55504116122211
.    Trial1    0.423337    -3615.55506196270107
.    Trial2    0.643603    -3615.55500706277871
. Quadratic    0.264662    -3615.55507362084973    -3615.55507363537845

--------------------------------------------------------------------------------
  Iter                              Commutator    Free_energy(A=E-TS)     DeltaA
#    4                          0.000003459317   -3615.55507362084973  -3.25E-05

Step                       =       0.264662389698
Energy                     =   -3615.555048021818
Entropy (-TS)              =      -0.000025599042
Free energy (A=E-TS)       =   -3615.555073620850
[...]
 C   275 -- C   555       -0.10      5.37000
 C   274 -- C   554       -0.10      5.37000
 C   273 -- C   553       -0.10      5.37000
 C   272 -- C   552       -0.10      5.37000
 C   271 -- C   551       -0.10      5.37000
 C   270 -- C   550       -0.10      5.37000
 C   269 -- C   549       -0.10      5.37000
 C   268 -- C   548       -0.10      5.37000
 C   267 -- C   547       -0.10      5.37000
 C   266 -- C   546       -0.10      5.37000
 C   130 -- C   465       -0.10      5.37000
 C   129 -- C   464       -0.10      5.37000
 C   128 -- C   463       -0.10      5.37000
 C   127 -- C   462       -0.10      5.37000
 C   126 -- C   461       -0.10      5.37000
 C   240 -- C   525       -0.10      5.37000
 C   239 -- C   524       -0.10      5.37000
 C   238 -- C   523       -0.10      5.37000
 C   237 -- C   522       -0.10      5.37000
 C   236 -- C   521       -0.10      5.37000
 C    23 -- C   478       -0.10      5.37202
 C    49 -- C   469       -0.10      5.37202
 C    48 -- C   468       -0.10      5.37202
 C    47 -- C   467       -0.10      5.37202
 C    22 -- C   477       -0.10      5.37202
 C    46 -- C   466       -0.10      5.37202
 C    21 -- C   476       -0.10      5.37202
 C    25 -- C   480       -0.10      5.37202
 C    24 -- C   479       -0.10      5.37202
 C    50 -- C   470       -0.10      5.37202
 C    24 -- C   449       -0.10      5.37202
 C     6 -- C   416       -0.10      5.37202
 C    23 -- C   448       -0.10      5.37202
 C    22 -- C   447       -0.10      5.37202
 C    10 -- C   470       -0.10      5.37202
 C     5 -- C   450       -0.10      5.37202
 C    21 -- C   446       -0.10      5.37202
 C    10 -- C   420       -0.10      5.37202
 C     9 -- C   469       -0.10      5.37202
 C     9 -- C   419       -0.10      5.37202
 C     8 -- C   468       -0.10      5.37202
 C     4 -- C   449       -0.10      5.37202
 C     8 -- C   418       -0.10      5.37202
 C   285 -- C   580       -0.10      5.37202
 C   284 -- C   579       -0.10      5.37202
 C   283 -- C   578       -0.10      5.37202
 C   282 -- C   577       -0.10      5.37202
 C   281 -- C   576       -0.10      5.37202
 C     2 -- C   447       -0.10      5.37202
 C     7 -- C   467       -0.10      5.37202
 C   260 -- C   605       -0.10      5.37202
 C   259 -- C   604       -0.10      5.37202
 C   258 -- C   603       -0.10      5.37202
 C   257 -- C   602       -0.10      5.37202
 C   256 -- C   601       -0.10      5.37202
 C     7 -- C   417       -0.10      5.37202
 C     1 -- C   446       -0.10      5.37202
 C     6 -- C   466       -0.10      5.37202
 C    25 -- C   450       -0.10      5.37202
 C     3 -- C   448       -0.10      5.37202
 C   219 -- C   569       -0.10      5.37202
 C   218 -- C   568       -0.10      5.37202
 C   217 -- C   567       -0.10      5.37202
 C   216 -- C   566       -0.10      5.37202
 C   250 -- C   540       -0.10      5.37202
 C   249 -- C   539       -0.10      5.37202
 C   248 -- C   538       -0.10      5.37202
 C   247 -- C   537       -0.10      5.37202
 C   246 -- C   536       -0.10      5.37202
 C   220 -- C   570       -0.10      5.37202
 C   205 -- C   550       -0.10      5.37202
 C   204 -- C   549       -0.10      5.37202
 C   203 -- C   548       -0.10      5.37202
 C   202 -- C   547       -0.10      5.37202
 C   201 -- C   546       -0.10      5.37202
 C    95 -- C   365       -0.10      5.37202
 C    94 -- C   364       -0.10      5.37202
 C    93 -- C   363       -0.10      5.37202
 C    92 -- C   362       -0.10      5.37202
 C    91 -- C   361       -0.10      5.37202
 C    65 -- C   395       -0.10      5.37202
 C    64 -- C   394       -0.10      5.37202
 C    63 -- C   393       -0.10      5.37202
 C    30 -- C   355       -0.10      5.37202
 C    62 -- C   392       -0.10      5.37202
 C    61 -- C   391       -0.10      5.37202
 C    29 -- C   354       -0.10      5.37202
 C   260 -- C   550       -0.10      5.37202
 C   259 -- C   549       -0.10      5.37202
 C    28 -- C   353       -0.10      5.37202
 C   258 -- C   548       -0.10      5.37202
 C   257 -- C   547       -0.10      5.37202
 C   256 -- C   546       -0.10      5.37202
 C    27 -- C   352       -0.10      5.37202
 C    26 -- C   351       -0.10      5.37202
 C    55 -- C   335       -0.10      5.37202
 C    54 -- C   334       -0.10      5.37202
 C    53 -- C   333       -0.10      5.37202
 C   230 -- C   580       -0.10      5.37202
 C   230 -- C   525       -0.10      5.37202
 C   229 -- C   579       -0.10      5.37202
 C   229 -- C   524       -0.10      5.37202
 C   228 -- C   578       -0.10      5.37202
 C    52 -- C   332       -0.10      5.37202
 C   228 -- C   523       -0.10      5.37202
 C   227 -- C   577       -0.10      5.37202
 C   227 -- C   522       -0.10      5.37202
 C   226 -- C   576       -0.10      5.37202
 C   226 -- C   521       -0.10      5.37202
 C    51 -- C   331       -0.10      5.37202
 C   220 -- C   515       -0.10      5.37202
 C   219 -- C   514       -0.10      5.37202
 C   218 -- C   513       -0.10      5.37202
 C   217 -- C   512       -0.10      5.37202
 C   216 -- C   511       -0.10      5.37202
 C   195 -- C   540       -0.10      5.37202
 C   195 -- C   500       -0.10      5.37202
 C   194 -- C   539       -0.10      5.37202
 C   194 -- C   499       -0.10      5.37202
 C   193 -- C   538       -0.10      5.37202
 C   193 -- C   498       -0.10      5.37202
 C   192 -- C   537       -0.10      5.37202
 C   192 -- C   497       -0.10      5.37202
 C   191 -- C   536       -0.10      5.37202
 C   191 -- C   496       -0.10      5.37202
 C   180 -- C   515       -0.10      5.37202
 C   179 -- C   514       -0.10      5.37202
 C   178 -- C   513       -0.10      5.37202
 C   177 -- C   512       -0.10      5.37202
 C   176 -- C   511       -0.10      5.37202
 C   150 -- C   440       -0.10      5.37202
 C   149 -- C   439       -0.10      5.37202
 C   148 -- C   438       -0.10      5.37202
 C   147 -- C   437       -0.10      5.37202
 C   146 -- C   436       -0.10      5.37202
 C   135 -- C   460       -0.10      5.37202
 C   134 -- C   459       -0.10      5.37202
 C   133 -- C   458       -0.10      5.37202
 C   132 -- C   457       -0.10      5.37202
 C   131 -- C   456       -0.10      5.37202
 C    11 -- C   331       -0.10      5.37202
 C    95 -- C   425       -0.10      5.37202
 C    94 -- C   424       -0.10      5.37202
 C    93 -- C   423       -0.10      5.37202
 C    92 -- C   422       -0.10      5.37202
 C    91 -- C   421       -0.10      5.37202
 C    85 -- C   355       -0.10      5.37202
 C    40 -- C   365       -0.10      5.37202
 C    84 -- C   354       -0.10      5.37202
 C    83 -- C   353       -0.10      5.37202
 C    82 -- C   352       -0.10      5.37202
 C    39 -- C   364       -0.10      5.37202
 C    81 -- C   351       -0.10      5.37202
 C    38 -- C   363       -0.10      5.37202
 C    37 -- C   362       -0.10      5.37202
 C    36 -- C   361       -0.10      5.37202
 C    15 -- C   335       -0.10      5.37202
 C    65 -- C   345       -0.10      5.37202
 C    64 -- C   344       -0.10      5.37202
 C    63 -- C   343       -0.10      5.37202
 C    30 -- C   325       -0.10      5.37202
 C    62 -- C   342       -0.10      5.37202
 C    14 -- C   334       -0.10      5.37202
 C    61 -- C   341       -0.10      5.37202
 C    29 -- C   324       -0.10      5.37202
 C    28 -- C   323       -0.10      5.37202
 C    13 -- C   333       -0.10      5.37202
 C    27 -- C   322       -0.10      5.37202
 C   120 -- C   395       -0.10      5.37202
 C    55 -- C   385       -0.10      5.37202
 C   119 -- C   394       -0.10      5.37202
 C   118 -- C   393       -0.10      5.37202
 C   117 -- C   392       -0.10      5.37202
 C    54 -- C   384       -0.10      5.37202
 C    26 -- C   321       -0.10      5.37202
 C   116 -- C   391       -0.10      5.37202
 C    53 -- C   383       -0.10      5.37202
 C    12 -- C   332       -0.10      5.37202
 C    52 -- C   382       -0.10      5.37202
 C    51 -- C   381       -0.10      5.37202
 C   106 -- C   436       -0.10      5.37202
 C   106 -- C   376       -0.10      5.37202
 C    80 -- C   410       -0.10      5.37202
 C    79 -- C   409       -0.10      5.37202
 C    78 -- C   408       -0.10      5.37202
 C    77 -- C   407       -0.10      5.37202
 C    76 -- C   406       -0.10      5.37202
 C   135 -- C   410       -0.10      5.37202
 C   134 -- C   409       -0.10      5.37202
 C   133 -- C   408       -0.10      5.37202
 C   132 -- C   407       -0.10      5.37202
 C   131 -- C   406       -0.10      5.37202
 C   110 -- C   440       -0.10      5.37202
 C   110 -- C   380       -0.10      5.37202
 C   109 -- C   439       -0.10      5.37202
 C   109 -- C   379       -0.10      5.37202
 C   108 -- C   438       -0.10      5.37202
 C   108 -- C   378       -0.10      5.37202
 C   107 -- C   437       -0.10      5.37202
 C   107 -- C   377       -0.10      5.37202
 C   215 -- C   635       -0.10      5.38000
 C   214 -- C   634       -0.10      5.38000
 C   213 -- C   633       -0.10      5.38000
 C   212 -- C   632       -0.10      5.38000
 C   211 -- C   631       -0.10      5.38000
 C   190 -- C   620       -0.10      5.38000
 C   189 -- C   619       -0.10      5.38000
 C   188 -- C   618       -0.10      5.38000
 C   187 -- C   617       -0.10      5.38000
 C   186 -- C   616       -0.10      5.38000
 C   175 -- C   595       -0.10      5.38000
 C   174 -- C   594       -0.10      5.38000
 C   173 -- C   593       -0.10      5.38000
 C   172 -- C   592       -0.10      5.38000
 C   171 -- C   591       -0.10      5.38000
 C   245 -- C   640       -0.10      5.38000
 C   244 -- C   639       -0.10      5.38000
 C   243 -- C   638       -0.10      5.38000
 C   242 -- C   637       -0.10      5.38000
 C   241 -- C   636       -0.10      5.38000
==================================================


=================== Orbital energy and occupancy information ===================

      Total number of orbitals:    2560
        Occupancy sum (kernel):    1280.000000001
   Occupancy sum (eigenvalues):    1280.000000001
                 HOMO-LUMO gap:       0.000010902 Eh
                 Mid-gap level:       0.238478766 Eh

                        Orbital | Energy (Eh) | Occupancy
                            1    -0.513360013   1.0000000
                        .......   ...........   .........
                         1272     0.167161419   0.9999889
                         1273     0.167615880   0.9999872
                         1274     0.167635314   0.9999871
                         1275     0.169394677   0.9999775
                         1276     0.169458343   0.9999770
                         1277     0.169868697   0.9999739
                         1278     0.169932440   0.9999733
                         1279     0.170210393   0.9999709
                         1280     0.170683512   0.9999662
                         1281     0.238473315   0.0000147
                        ....... -- gap at 0K -- .........
                         1282     0.238484217   0.0000147
                         1283     0.238699038   0.0000138
                         1284     0.238714588   0.0000136
                         1285     0.238725700   0.0000136
                         1286     0.238756591   0.0000135
                         1287     0.238897275   0.0000129
                         1288     0.238948733   0.0000127
                         1289     0.239006251   0.0000125
                         1290     0.239029952   0.0000123
                         1291     0.239035091   0.0000123
                        .......   ...........   .........
                         2560     1.106700211   0.0000000

================================================================================

===================== Writing canonical molecular orbitals =====================
| Orbital  Energy (eV)  Norm     |
| HOMO      6.48918908  1.000000 | Writing "3.8637928_GO_manual_4x64graphite_HOMO.cube" ... done
Writing "3.8637928_GO_manual_4x64graphite_HOMO.dx" ... done
| LUMO      6.48948575  1.000000 | Writing "3.8637928_GO_manual_4x64graphite_LUMO.cube" ... done
Writing "3.8637928_GO_manual_4x64graphite_LUMO.dx" ... done
================================================================================
 
===================== Density of States (DOS) calculation ======================
Writing "3.8637928_GO_manual_4x64graphite_DOS.txt" ...  done
================================================================================
 
Writing bands to file "3.8637928_GO_manual_4x64graphite.val_bands" ... done
 
================ Projected Density of States (pDOS) calculation ================
 
Constructing AM resolved functions  ...... done
Writing NGWF plot files in formats: CUBE DX ...  done
 
Performing overlap integrals ...  done
 
Computing pDOS weights ...  done
 
All bands spilling parameter =   2.99 %
Occupancy-weighted spilling parameter =   0.94 %
 
 => Outputting data for OptaDOS <=
 
Writing pDOS weights to file "3.8637928_GO_manual_4x64graphite.val_pdos_bin" ... done
 
Writing band gradients to file "3.8637928_GO_manual_4x64graphite.val_dome_bin" ... done
 
Writing Castep output cell file to "3.8637928_GO_manual_4x64graphite-out.cell" ... done
 
 => Computing Gaussian smeared pDOS <= 
Writing "3.8637928_GO_manual_4x64graphite_PDOS.txt" ...  done
 
 => Computing Occupancy-weighted Gaussian smeared pDOS <= 
Writing "3.8637928_GO_manual_4x64graphite_occ_PDOS.txt" ...  done
  => Band centres: 
 S band centre of group 1:  -15.513602 eV
 P band centre of group 1:   -8.437467 eV
  Band centres done. <=
  => Integrated number of electrons in each AM band: 
 S num electrons of group 1:  571.412263
 P num electrons of group 1: 1964.432963
  Integrated number of electrons done. <=
================================================================================

------------------------------ TIMING INFORMATION ------------------------------
AVERAGE TIME:    3048.777s on     40 node(s)                                    
TOTAL TIME:      3048.777s on     40 node(s)                                    
================= AVERAGE TIMINGS FROM ALL NODES (CUMULATIVE) ==================
|| TAG                                    #calls    cpu time   %total  Gflops ||
|| work_imbalance                       :     1        0.00s   0.000%  ------ ||
|| paw_tcore_hartree_on_grid            :     1        0.00s   0.000%  ------ ||
|| paw_tcore_density                    :     1        0.01s   0.000%  ------ ||
|| paw_sphere_density_on_grid           :     1        0.01s   0.000%  ------ ||
|| sparse_set_to_garbage                :   135        0.02s   0.001%  ------ ||
|| paw_dij_hartree                      :   268        0.03s   0.001%  ------ ||
|| pseudo_make_structure_factor         :     1        0.06s   0.002%  ------ ||
|| basis_extract_function_from_box      :  1536        0.07s   0.002%  ------ ||
|| paw_species_calc_proj_prec_mat       :     1        0.12s   0.004%  ------ ||
|| paw_dataset_init                     :     1        0.15s   0.005%  ------ ||
|| density_init_guess_real              :     1        0.18s   0.006%  ------ ||
|| restart_kernel_write                 :    13        0.57s   0.019%  ------ ||
|| ngwfs_initialise_from_radial         :     2        0.66s   0.022%  ------ ||
|| sparse_init                          :     1        0.85s   0.028%  ------ ||
|| dense_normal_eigensolve              :     1        1.05s   0.034%  ------ ||
|| hartree_on_grid                      :   202        1.13s   0.037%  ------ ||
|| projectors_init_fftbox_recip         :   121        2.35s   0.077%  ------ ||
|| ewald_calculate_energy               :     1        3.26s   0.107%  ------ ||
|| fourier_apply_box_pair               :  2272        3.77s   0.124% 559.164 ||
|| basis_copy_function_to_box           : 19264        4.11s   0.135%  ------ ||
|| augmentation_screen_dij              :   207        4.61s   0.151%  ------ ||
|| sparse_embed_hotelling_invert_embed  :    23        6.53s   0.214%  ------ ||
|| sw_init                              :     1        6.73s   0.221%  ------ ||
|| ngwf_gradient_coeffs                 :    12        8.66s   0.284%  ------ ||
|| sparse_trace                         :  2422       10.87s   0.356%  ------ ||
|| fourier_apply_cell_backward          :  6233       13.33s   0.437%  63.835 ||
|| fourier_apply_cell_forward           :  5830       14.58s   0.478%  54.617 ||
|| cell_grid_extract_box_real           :  8124       15.43s   0.506%  ------ ||
|| cell_grid_deposit_box_real           : 26032       18.17s   0.596%  ------ ||
|| paw_dij_xc                           :   268       24.40s   0.800%  ------ ||
|| aug_nonlocal_mat                     :   256       32.28s   1.059%  ------ ||
|| augmentation_density_on_grid         :   202       35.00s   1.148%  ------ ||
|| density_fftbox_deposit_to_cell       : 12928       37.03s   1.215%  ------ ||
|| hamiltonian_energy_components        :     3       47.83s   1.569%  ------ ||
|| function_ops_brappd_ketppd           :    48       48.41s   1.588%  ------ ||
|| projectors_func_ovlp_box             :    24       53.67s   1.760%  ------ ||
|| eigenstates_pdos                     :     1       54.06s   1.773%  ------ ||
|| eigenstates_calculate                :     1       58.47s   1.918%  ------ ||
|| xc_energy_potential                  :   201       63.62s   2.087%  ------ ||
|| nlxc_vdw_energy                      :   402       66.44s   2.179%  ------ ||
|| integrals_kinetic                    :    23       77.53s   2.543%  ------ ||
|| dense_eigensolve                     :   175       91.26s   2.993%  ------ ||
|| sparse_product                       :  2477       96.10s   3.152%  ------ ||
|| potential_apply_to_ngwf_batch        :   252       99.82s   3.274%  ------ ||
|| properties_calculate                 :     1      107.93s   3.540%  ------ ||
|| restart_ngwfs_tightbox_output        :    11      116.88s   3.834%  ------ ||
|| basis_dot_function_with_box          : 5.880M     161.81s   5.307%  ------ ||
|| fourier_apply_box                    : 60896      188.66s   6.188% 977.661 ||
|| edft_diag_ngwf_ham                   :   174      198.63s   6.515%  ------ ||
|| integrals_locpot_mat_els_batch       :   252      217.84s   7.145%  ------ ||
|| projectors_gradient_batch            :    48      218.73s   7.174%  ------ ||
|| density_fftbox_interpolate_multiply  : 12928      250.41s   8.213%  ------ ||
|| projectors_grad_precond_batch        :    48      299.74s   9.831%  ------ ||
|| integrals_locpot_dbl_grid            :    63      318.73s  10.454%  ------ ||
|| density_batch_interp_deposit         :   808      320.00s  10.496%  ------ ||
|| edft_apply_smearing_operator         :   174      382.82s  12.556%  ------ ||
|| basis_add_function_to_box            : 16.51M     440.00s  14.432%  ------ ||
|| ngwf_gradient_build_batch            :    48      554.94s  18.202%  ------ ||
|| density_batch_row_sums               :   808      630.34s  20.675%  ------ ||
|| ngwf_gradient_batch                  :    48      736.04s  24.142%  ------ ||
|| ngwf_gradient_lnv                    :    12      767.02s  25.158%  ------ ||
|| density_on_dbl_grid                  :   202      961.54s  31.539%  ------ ||
|| hamiltonian_lhxc_calculate           :   197     1042.15s  34.182%  ------ ||
|| edft_calculate                       :    12     1722.33s  56.493%  ------ ||
|| ngwf_cg_optimise                     :     1     2920.68s  95.798%  ------ ||
|| total_time                           :     1     3048.78s 100.000%  ------ ||
================================================================================
Overhead of generating timer report: 
- 0 ms averaging over threads,
- 5 ms ensuring consistency across MPI ranks,
- 0 ms printing in order.

Job completed: 29-02-2020 07:51 (-0000)

