 +---------------------------------------------------------------+
 |                                                               |
 |        ####### #     # ####### ####### ####### ######         |
 |        #     # ##    # #          #    #       #     #        |
 |        #     # # #   # #          #    #       #     #        |
 |        #     # #  #  # #####      #    #####   ######         |
 |        #     # #   # # #          #    #       #              |
 |        #     # #    ## #          #    #       #              |
 |        ####### #     # #######    #    ####### #              |
 |                                                               |
 |        Linear-Scaling Ab Initio Total Energy Program          |
 |                                                               |
 |          Release for academic collaborators of ODG            |
 |                                             Version 5.3.2.12  |
 |                                                               |
 +---------------------------------------------------------------+
 |                                                               |
 |  Authors:                                                     |
 |  Jacek Dziedzic, Peter D. Haynes, Nicholas D. M. Hine,        |
 |  Arash. A. Mostofi, Mike C. Payne and Chris-Kriton Skylaris   |
 |                                                               |
 |  Contributors:                                                |
 |  J. Aarons, L. Andrinopoulos, P. W. Avraam, R. A. Bell,       |
 |  A. Bhandari, G. A. Bramley, R. J. Charlton, S. J. Clark,     |
 |  R. J. Clements, G. C. Constantinescu, F. Corsetti,           |
 |  N. Corsini, O. Dieguez, S. M. M. Dubois, K. K. B. Duff,      |
 |  J. M. Escartin, A. Greco, H. Helal, Q. O. Hill, L. P. Lee,   |
 |  J.-H. Li, E. B. Linscott, G. Moynihan, D. D. O`Regan,        |
 |  O. K. Okan, M. J. S. Phipps, C. J. Pickard,                  |
 |  J. C. A. Prentice, M. I. J. Probert, L. E. Ratcliff,         |
 |  M. Robinson, A. Ruiz Serrano, J. S. Spencer, E. W. Tait,     |
 |  G. Teobaldi, D. Turban, V. Vitale, K. A. Wilkinson,          |
 |  C. Weber, J. C. Womack, N. Yeung and T. J. Zuehlsdorff       |
 |                                                               |
 |                                   Copyright (c) 2004-2020     |
 |                                                               |
 |  Please cite:                                                 |
 |  "Introducing ONETEP: Linear-scaling density functional       |
 |   simulations on parallel computers".                         |
 |   C.-K. Skylaris, P. D. Haynes, A. A. Mostofi, M. C. Payne.   |
 |   J. Chem. Phys. 122 084119 (2005).                           |
 |                                                               |
 |          in all publications arising from your use of ONETEP. |
 |                                                               |
 +---------------------------------------------------------------+
 |                                                               |
 |   ONETEP is based on developments described in the following  |
 |   publications:                                               |
 |                                                               |
 |  "Nonorthogonal generalized Wannier function pseudopotential  |
 |   plane-wave method".                                         |
 |   C.-K. Skylaris, A. A. Mostofi, P. D. Haynes, O. Dieguez,    |
 |   M. C. Payne.                                                |
 |   Phys. Rev. B 66 035119 (2002).                              |
 |                                                               |
 |  "Preconditioned iterative minimization for linear-scaling    |
 |   electronic structure calculations".                         |
 |   A. A. Mostofi, P. D. Haynes, C.-K. Skylaris, M. C. Payne.   |
 |   J. Chem. Phys. 119(17), pp.8842-8848 (2003).                |
 |                                                               |
 |  "Total-energy calculations on a real space grid with         |
 |   localized functions and a plane-wave basis".                |
 |   A. A. Mostofi, C.-K. Skylaris, P. D. Haynes, M. C. Payne.   |
 |   Comput. Phys. Commun. 147, pp.788-802 (2002).               |
 |                                                               |
 |  "Accurate kinetic energy evaluation in electronic structure  |
 |   calculations with localized functions on real space grids"  |
 |   C.-K. Skylaris, A. A. Mostofi, P. D. Haynes, C. J. Pickard, |
 |   M. C. Payne.                                                |
 |   Comput. Phys. Commun. 140, pp.315-322 (2001).               |
 |                                                               |
 |  "Accurate ionic forces and geometry optimization in linear-  |
 |   scaling density-functional theory with local orbitals"      |
 |   N. D. M. Hine, M. Robinson, P. D. Haynes, C.-K. Skylaris,   |
 |   M. C. Payne, and A. A. Mostofi.                             |
 |   Phys. Rev. B 83 195102 (2011).                              |
 |                                                               |
 +---------------------------------------------------------------+

Job started: 05-03-2020 10:36 (-0000)
 
Reading parameters from file "4.69556_GO_manual_4x64graphite.dat" ...

WARNING: "cutoff_energy" not specified, but "psinc_spacing" specified.
         Using the latter to set the KE cutoff energy to  732.32021eV,
         thus *overriding* the default.

... done

If your calculation crashes here, before "Checking processes and threads..."
is displayed, then your stack size is insufficient.
If so, use "ulimit -s unlimited" at runtime.
You can disable this check with "check_stack_size F".

Checking processes and threads...
   Determining the default number of threads...
      No default threads set at compilation time: defaulting to 1.
      OpenMP library call suggests 4 threads.
      Hybrid MPI-OpenMP compilation detected.
      Number of MPI processes > 1.
      OMP_NUM_THREADS environment variable present and
      its value matches the one obtained from the OpenMP library call.
      Using this value as default.
      Default threads: 4
      Default applies to threads_max and threads_num_fftboxes.
      Settings in the input file override this default.
   ... done

   Running with 40 MPI processes.
   There are 10 MPI processes running on the same node as the root process.
   Each MPI process is using: 
               1 threads for simulation cell FFTs.
               1 threads for parallel FFT box operations.
               4 threads for loops over batched FFT box operations.
               4 threads in other parallel regions.
... done

Basic input checks...
Resetting ngwf_cg_rotate to TRUE for EDFT calculations
... done

Reading geometry and species blocks from file "4.69556_GO_manual_4x64graphite.dat" ...
    
  PSINC grid spacing along a1 set to   0.511215680000a0 from input file.
  PSINC grid spacing along a2 set to   0.531284090000a0 from input file.
  PSINC grid spacing along a3 set to   0.507048030000a0 from input file.
  Number of PPD points along a3 set to 1.  This is 
  the default value, it may have been provided also in the input file.
... done
 Writing xyz coordinates to file "4.69556_GO_manual_4x64graphite.xyz" ... done


--------------------------------------------------------------------------------
---------------------------------- INPUT FILE ----------------------------------
--------------------------------------------------------------------------------

task : singlepoint                                                              
do_properties : true                                                            
dx_format T                                                                     
edft T                                                                          
output_detail VERBOSE                                                           
write_xyz T                                                                     
xc_functional AVV10S                                                            
PSINC_SPACING 0.51121568 0.53128409 0.50704803                                  
paw T                                                                           
pdos_max_l = 2                                                                  
dos_smear  0.1 eV                                                               
popn_calculate T                                                                
PDOS_PSEUDOATOMIC T                                                             
PDOS_REDUCE_SWS F                                                               
PDOS_CONSTRUCT_BASIS F                                                          
PDOS_LOWDIN T                                                                   
PDOS_ORTH_ATOM_BLOCKS F                                                         
PDOS_LCAO_OPTIMIZE F                                                            
pdos_optados_output T                                                           
homo_plot 0                                                                     
lumo_plot 0                                                                     
homo_dens_plot -1                                                               
lumo_dens_plot -1                                                               
%BLOCK SPECIES                                                                  
C C 6 4 9.0                                                                     
%ENDBLOCK SPECIES                                                               
%BLOCK SPECIES_POT                                                              
C "~/pp/paw/c_pbe_abinit.paw"                                                   
%ENDBLOCK SPECIES_POT                                                           
%BLOCK SPECIES_ATOMIC_SET                                                       
C "SOLVE conf=2s2 2p2"                                                          
%ENDBLOCK SPECIES_ATOMIC_SET                                                    
%BLOCK LATTICE_CART                                                             
32.21  0.00  0.00                                                               
0.00 18.59  0.00                                                                
0.00  0.00 88.73                                                                
%ENDBLOCK LATTICE_CART                                                          
%BLOCK POSITIONS_ABS                                                            
C  0.00  0.00  4.44                                                             
C  0.00  0.00 22.18                                                             
C  0.00  0.00 39.93                                                             
C  0.00  0.00 57.68                                                             
C  0.00  0.00 75.42                                                             
C  0.00  4.65  4.44                                                             
C  0.00  4.65 22.18                                                             
C  0.00  4.65 39.93                                                             
C  0.00  4.65 57.68                                                             
C  0.00  4.65 75.42                                                             
C  4.03  2.32  4.44                                                             
C  4.03  2.32 22.18                                                             
C  4.03  2.32 39.93                                                             
C  4.03  2.32 57.68                                                             
C  4.03  2.32 75.42                                                             
C  8.05  0.00  4.44                                                             
C  8.05  0.00 22.18                                                             
C  8.05  0.00 39.93                                                             
C  8.05  0.00 57.68                                                             
C  8.05  0.00 75.42                                                             
C  0.00  9.30  4.44                                                             
C  0.00  9.30 22.18                                                             
C  0.00  9.30 39.93                                                             
C  0.00  9.30 57.68                                                             
C  0.00  9.30 75.42                                                             
C  4.03  6.97  4.44                                                             
C  4.03  6.97 22.18                                                             
C  4.03  6.97 39.93                                                             
C  4.03  6.97 57.68                                                             
C  4.03  6.97 75.42                                                             
C  8.05  4.65  4.44                                                             
C  8.05  4.65 22.18                                                             
C  8.05  4.65 39.93                                                             
C  8.05  4.65 57.68                                                             
C  8.05  4.65 75.42                                                             
C 12.08  2.32  4.44                                                             
C 12.08  2.32 22.18                                                             
C 12.08  2.32 39.93                                                             
C 12.08  2.32 57.68                                                             
C 12.08  2.32 75.42                                                             
C 16.10  0.00  4.44                                                             
C 16.10  0.00 22.18                                                             
C 16.10  0.00 39.93                                                             
C 16.10  0.00 57.68                                                             
C 16.10  0.00 75.42                                                             
C  0.00 13.95  4.44                                                             
C  0.00 13.95 22.18                                                             
C  0.00 13.95 39.93                                                             
C  0.00 13.95 57.68                                                             
C  0.00 13.95 75.42                                                             
C  4.03 11.62  4.44                                                             
C  4.03 11.62 22.18                                                             
C  4.03 11.62 39.93                                                             
C  4.03 11.62 57.68                                                             
C  4.03 11.62 75.42                                                             
C  8.05  9.30  4.44                                                             
C  8.05  9.30 22.18                                                             
C  8.05  9.30 39.93                                                             
C  8.05  9.30 57.68                                                             
C  8.05  9.30 75.42                                                             
C 12.08  6.97  4.44                                                             
C 12.08  6.97 22.18                                                             
C 12.08  6.97 39.93                                                             
C 12.08  6.97 57.68                                                             
C 12.08  6.97 75.42                                                             
C 16.10  4.65  4.44                                                             
C 16.10  4.65 22.18                                                             
C 16.10  4.65 39.93                                                             
C 16.10  4.65 57.68                                                             
C 16.10  4.65 75.42                                                             
C 20.13  2.32  4.44                                                             
C 20.13  2.32 22.18                                                             
C 20.13  2.32 39.93                                                             
C 20.13  2.32 57.68                                                             
C 20.13  2.32 75.42                                                             
C 24.16  0.00  4.44                                                             
C 24.16  0.00 22.18                                                             
C 24.16  0.00 39.93                                                             
C 24.16  0.00 57.68                                                             
C 24.16  0.00 75.42                                                             
C  4.03 16.27  4.44                                                             
C  4.03 16.27 22.18                                                             
C  4.03 16.27 39.93                                                             
C  4.03 16.27 57.68                                                             
C  4.03 16.27 75.42                                                             
C  8.05 13.95  4.44                                                             
C  8.05 13.95 22.18                                                             
C  8.05 13.95 39.93                                                             
C  8.05 13.95 57.68                                                             
C  8.05 13.95 75.42                                                             
C 12.08 11.62  4.44                                                             
C 12.08 11.62 22.18                                                             
C 12.08 11.62 39.93                                                             
C 12.08 11.62 57.68                                                             
C 12.08 11.62 75.42                                                             
C 16.10  9.30  4.44                                                             
C 16.10  9.30 22.18                                                             
C 16.10  9.30 39.93                                                             
C 16.10  9.30 57.68                                                             
C 16.10  9.30 75.42                                                             
C 20.13  6.97  4.44                                                             
C 20.13  6.97 22.18                                                             
C 20.13  6.97 39.93                                                             
C 20.13  6.97 57.68                                                             
C 20.13  6.97 75.42                                                             
C 24.16  4.65  4.44                                                             
C 24.16  4.65 22.18                                                             
C 24.16  4.65 39.93                                                             
C 24.16  4.65 57.68                                                             
C 24.16  4.65 75.42                                                             
C 28.18  2.32  4.44                                                             
C 28.18  2.32 22.18                                                             
C 28.18  2.32 39.93                                                             
C 28.18  2.32 57.68                                                             
C 28.18  2.32 75.42                                                             
C 12.08 16.27  4.44                                                             
C 12.08 16.27 22.18                                                             
C 12.08 16.27 39.93                                                             
C 12.08 16.27 57.68                                                             
C 12.08 16.27 75.42                                                             
C 16.10 13.95  4.44                                                             
C 16.10 13.95 22.18                                                             
C 16.10 13.95 39.93                                                             
C 16.10 13.95 57.68                                                             
C 16.10 13.95 75.42                                                             
C 20.13 11.62  4.44                                                             
C 20.13 11.62 22.18                                                             
C 20.13 11.62 39.93                                                             
C 20.13 11.62 57.68                                                             
C 20.13 11.62 75.42                                                             
C 24.16  9.30  4.44                                                             
C 24.16  9.30 22.18                                                             
C 24.16  9.30 39.93                                                             
C 24.16  9.30 57.68                                                             
C 24.16  9.30 75.42                                                             
C 28.18  6.97  4.44                                                             
C 28.18  6.97 22.18                                                             
C 28.18  6.97 39.93                                                             
C 28.18  6.97 57.68                                                             
C 28.18  6.97 75.42                                                             
C 20.13 16.27  4.44                                                             
C 20.13 16.27 22.18                                                             
C 20.13 16.27 39.93                                                             
C 20.13 16.27 57.68                                                             
C 20.13 16.27 75.42                                                             
C 24.16 13.95  4.44                                                             
C 24.16 13.95 22.18                                                             
C 24.16 13.95 39.93                                                             
C 24.16 13.95 57.68                                                             
C 24.16 13.95 75.42                                                             
C 28.18 11.62  4.44                                                             
C 28.18 11.62 22.18                                                             
C 28.18 11.62 39.93                                                             
C 28.18 11.62 57.68                                                             
C 28.18 11.62 75.42                                                             
C 28.18 16.27  4.44                                                             
C 28.18 16.27 22.18                                                             
C 28.18 16.27 39.93                                                             
C 28.18 16.27 57.68                                                             
C 28.18 16.27 75.42                                                             
C  0.00  0.00 13.31                                                             
C  0.00  0.00 31.06                                                             
C  0.00  0.00 48.80                                                             
C  0.00  0.00 66.55                                                             
C  0.00  0.00 84.30                                                             
C  0.00  4.65 13.31                                                             
C  0.00  4.65 31.06                                                             
C  0.00  4.65 48.80                                                             
C  0.00  4.65 66.55                                                             
C  0.00  4.65 84.30                                                             
C  4.03  2.32 13.31                                                             
C  4.03  2.32 31.06                                                             
C  4.03  2.32 48.80                                                             
C  4.03  2.32 66.55                                                             
C  4.03  2.32 84.30                                                             
C  8.05  0.00 13.31                                                             
C  8.05  0.00 31.06                                                             
C  8.05  0.00 48.80                                                             
C  8.05  0.00 66.55                                                             
C  8.05  0.00 84.30                                                             
C  0.00  9.30 13.31                                                             
C  0.00  9.30 31.06                                                             
C  0.00  9.30 48.80                                                             
C  0.00  9.30 66.55                                                             
C  0.00  9.30 84.30                                                             
C  4.03  6.97 13.31                                                             
C  4.03  6.97 31.06                                                             
C  4.03  6.97 48.80                                                             
C  4.03  6.97 66.55                                                             
C  4.03  6.97 84.30                                                             
C  8.05  4.65 13.31                                                             
C  8.05  4.65 31.06                                                             
C  8.05  4.65 48.80                                                             
C  8.05  4.65 66.55                                                             
C  8.05  4.65 84.30                                                             
C 12.08  2.32 13.31                                                             
C 12.08  2.32 31.06                                                             
C 12.08  2.32 48.80                                                             
C 12.08  2.32 66.55                                                             
C 12.08  2.32 84.30                                                             
C 16.10  0.00 13.31                                                             
C 16.10  0.00 31.06                                                             
C 16.10  0.00 48.80                                                             
C 16.10  0.00 66.55                                                             
C 16.10  0.00 84.30                                                             
C  0.00 13.95 13.31                                                             
C  0.00 13.95 31.06                                                             
C  0.00 13.95 48.80                                                             
C  0.00 13.95 66.55                                                             
C  0.00 13.95 84.30                                                             
C  4.03 11.62 13.31                                                             
C  4.03 11.62 31.06                                                             
C  4.03 11.62 48.80                                                             
C  4.03 11.62 66.55                                                             
C  4.03 11.62 84.30                                                             
C  8.05  9.30 13.31                                                             
C  8.05  9.30 31.06                                                             
C  8.05  9.30 48.80                                                             
C  8.05  9.30 66.55                                                             
C  8.05  9.30 84.30                                                             
C 12.08  6.97 13.31                                                             
C 12.08  6.97 31.06                                                             
C 12.08  6.97 48.80                                                             
C 12.08  6.97 66.55                                                             
C 12.08  6.97 84.30                                                             
C 16.10  4.65 13.31                                                             
C 16.10  4.65 31.06                                                             
C 16.10  4.65 48.80                                                             
C 16.10  4.65 66.55                                                             
C 16.10  4.65 84.30                                                             
C 20.13  2.32 13.31                                                             
C 20.13  2.32 31.06                                                             
C 20.13  2.32 48.80                                                             
C 20.13  2.32 66.55                                                             
C 20.13  2.32 84.30                                                             
C 24.16  0.00 13.31                                                             
C 24.16  0.00 31.06                                                             
C 24.16  0.00 48.80                                                             
C 24.16  0.00 66.55                                                             
C 24.16  0.00 84.30                                                             
C  4.03 16.27 13.31                                                             
C  4.03 16.27 31.06                                                             
C  4.03 16.27 48.80                                                             
C  4.03 16.27 66.55                                                             
C  4.03 16.27 84.30                                                             
C  8.05 13.95 13.31                                                             
C  8.05 13.95 31.06                                                             
C  8.05 13.95 48.80                                                             
C  8.05 13.95 66.55                                                             
C  8.05 13.95 84.30                                                             
C 12.08 11.62 13.31                                                             
C 12.08 11.62 31.06                                                             
C 12.08 11.62 48.80                                                             
C 12.08 11.62 66.55                                                             
C 12.08 11.62 84.30                                                             
C 16.10  9.30 13.31                                                             
C 16.10  9.30 31.06                                                             
C 16.10  9.30 48.80                                                             
C 16.10  9.30 66.55                                                             
C 16.10  9.30 84.30                                                             
C 20.13  6.97 13.31                                                             
C 20.13  6.97 31.06                                                             
C 20.13  6.97 48.80                                                             
C 20.13  6.97 66.55                                                             
C 20.13  6.97 84.30                                                             
C 24.16  4.65 13.31                                                             
C 24.16  4.65 31.06                                                             
C 24.16  4.65 48.80                                                             
C 24.16  4.65 66.55                                                             
C 24.16  4.65 84.30                                                             
C 28.18  2.32 13.31                                                             
C 28.18  2.32 31.06                                                             
C 28.18  2.32 48.80                                                             
C 28.18  2.32 66.55                                                             
C 28.18  2.32 84.30                                                             
C 12.08 16.27 13.31                                                             
C 12.08 16.27 31.06                                                             
C 12.08 16.27 48.80                                                             
C 12.08 16.27 66.55                                                             
C 12.08 16.27 84.30                                                             
C 16.10 13.95 13.31                                                             
C 16.10 13.95 31.06                                                             
C 16.10 13.95 48.80                                                             
C 16.10 13.95 66.55                                                             
C 16.10 13.95 84.30                                                             
C 20.13 11.62 13.31                                                             
C 20.13 11.62 31.06                                                             
C 20.13 11.62 48.80                                                             
C 20.13 11.62 66.55                                                             
C 20.13 11.62 84.30                                                             
C 24.16  9.30 13.31                                                             
C 24.16  9.30 31.06                                                             
C 24.16  9.30 48.80                                                             
C 24.16  9.30 66.55                                                             
C 24.16  9.30 84.30                                                             
C 28.18  6.97 13.31                                                             
C 28.18  6.97 31.06                                                             
C 28.18  6.97 48.80                                                             
C 28.18  6.97 66.55                                                             
C 28.18  6.97 84.30                                                             
C 20.13 16.27 13.31                                                             
C 20.13 16.27 31.06                                                             
C 20.13 16.27 48.80                                                             
C 20.13 16.27 66.55                                                             
C 20.13 16.27 84.30                                                             
C 24.16 13.95 13.31                                                             
C 24.16 13.95 31.06                                                             
C 24.16 13.95 48.80                                                             
C 24.16 13.95 66.55                                                             
C 24.16 13.95 84.30                                                             
C 28.18 11.62 13.31                                                             
C 28.18 11.62 31.06                                                             
C 28.18 11.62 48.80                                                             
C 28.18 11.62 66.55                                                             
C 28.18 11.62 84.30                                                             
C 28.18 16.27 13.31                                                             
C 28.18 16.27 31.06                                                             
C 28.18 16.27 48.80                                                             
C 28.18 16.27 66.55                                                             
C 28.18 16.27 84.30                                                             
C  1.34  2.32  4.44                                                             
C  1.34  2.32 22.18                                                             
C  1.34  2.32 39.93                                                             
C  1.34  2.32 57.68                                                             
C  1.34  2.32 75.42                                                             
C  5.37  0.00  4.44                                                             
C  5.37  0.00 22.18                                                             
C  5.37  0.00 39.93                                                             
C  5.37  0.00 57.68                                                             
C  5.37  0.00 75.42                                                             
C  1.34  6.97  4.44                                                             
C  1.34  6.97 22.18                                                             
C  1.34  6.97 39.93                                                             
C  1.34  6.97 57.68                                                             
C  1.34  6.97 75.42                                                             
C  5.37  4.65  4.44                                                             
C  5.37  4.65 22.18                                                             
C  5.37  4.65 39.93                                                             
C  5.37  4.65 57.68                                                             
C  5.37  4.65 75.42                                                             
C  9.39  2.32  4.44                                                             
C  9.39  2.32 22.18                                                             
C  9.39  2.32 39.93                                                             
C  9.39  2.32 57.68                                                             
C  9.39  2.32 75.42                                                             
C 13.42  0.00  4.44                                                             
C 13.42  0.00 22.18                                                             
C 13.42  0.00 39.93                                                             
C 13.42  0.00 57.68                                                             
C 13.42  0.00 75.42                                                             
C  1.34 11.62  4.44                                                             
C  1.34 11.62 22.18                                                             
C  1.34 11.62 39.93                                                             
C  1.34 11.62 57.68                                                             
C  1.34 11.62 75.42                                                             
C  5.37  9.30  4.44                                                             
C  5.37  9.30 22.18                                                             
C  5.37  9.30 39.93                                                             
C  5.37  9.30 57.68                                                             
C  5.37  9.30 75.42                                                             
C  9.39  6.97  4.44                                                             
C  9.39  6.97 22.18                                                             
C  9.39  6.97 39.93                                                             
C  9.39  6.97 57.68                                                             
C  9.39  6.97 75.42                                                             
C 13.42  4.65  4.44                                                             
C 13.42  4.65 22.18                                                             
C 13.42  4.65 39.93                                                             
C 13.42  4.65 57.68                                                             
C 13.42  4.65 75.42                                                             
C 17.45  2.32  4.44                                                             
C 17.45  2.32 22.18                                                             
C 17.45  2.32 39.93                                                             
C 17.45  2.32 57.68                                                             
C 17.45  2.32 75.42                                                             
C 21.47  0.00  4.44                                                             
C 21.47  0.00 22.18                                                             
C 21.47  0.00 39.93                                                             
C 21.47  0.00 57.68                                                             
C 21.47  0.00 75.42                                                             
C  1.34 16.27  4.44                                                             
C  1.34 16.27 22.18                                                             
C  1.34 16.27 39.93                                                             
C  1.34 16.27 57.68                                                             
C  1.34 16.27 75.42                                                             
C  5.37 13.95  4.44                                                             
C  5.37 13.95 22.18                                                             
C  5.37 13.95 39.93                                                             
C  5.37 13.95 57.68                                                             
C  5.37 13.95 75.42                                                             
C  9.39 11.62  4.44                                                             
C  9.39 11.62 22.18                                                             
C  9.39 11.62 39.93                                                             
C  9.39 11.62 57.68                                                             
C  9.39 11.62 75.42                                                             
C 13.42  9.30  4.44                                                             
C 13.42  9.30 22.18                                                             
C 13.42  9.30 39.93                                                             
C 13.42  9.30 57.68                                                             
C 13.42  9.30 75.42                                                             
C 17.45  6.97  4.44                                                             
C 17.45  6.97 22.18                                                             
C 17.45  6.97 39.93                                                             
C 17.45  6.97 57.68                                                             
C 17.45  6.97 75.42                                                             
C 21.47  4.65  4.44                                                             
C 21.47  4.65 22.18                                                             
C 21.47  4.65 39.93                                                             
C 21.47  4.65 57.68                                                             
C 21.47  4.65 75.42                                                             
C 25.50  2.32  4.44                                                             
C 25.50  2.32 22.18                                                             
C 25.50  2.32 39.93                                                             
C 25.50  2.32 57.68                                                             
C 25.50  2.32 75.42                                                             
C 29.52  0.00  4.44                                                             
C 29.52  0.00 22.18                                                             
C 29.52  0.00 39.93                                                             
C 29.52  0.00 57.68                                                             
C 29.52  0.00 75.42                                                             
C  9.39 16.27  4.44                                                             
C  9.39 16.27 22.18                                                             
C  9.39 16.27 39.93                                                             
C  9.39 16.27 57.68                                                             
C  9.39 16.27 75.42                                                             
C 13.42 13.95  4.44                                                             
C 13.42 13.95 22.18                                                             
C 13.42 13.95 39.93                                                             
C 13.42 13.95 57.68                                                             
C 13.42 13.95 75.42                                                             
C 17.45 11.62  4.44                                                             
C 17.45 11.62 22.18                                                             
C 17.45 11.62 39.93                                                             
C 17.45 11.62 57.68                                                             
C 17.45 11.62 75.42                                                             
C 21.47  9.30  4.44                                                             
C 21.47  9.30 22.18                                                             
C 21.47  9.30 39.93                                                             
C 21.47  9.30 57.68                                                             
C 21.47  9.30 75.42                                                             
C 25.50  6.97  4.44                                                             
C 25.50  6.97 22.18                                                             
C 25.50  6.97 39.93                                                             
C 25.50  6.97 57.68                                                             
C 25.50  6.97 75.42                                                             
C 29.52  4.65  4.44                                                             
C 29.52  4.65 22.18                                                             
C 29.52  4.65 39.93                                                             
C 29.52  4.65 57.68                                                             
C 29.52  4.65 75.42                                                             
C 17.45 16.27  4.44                                                             
C 17.45 16.27 22.18                                                             
C 17.45 16.27 39.93                                                             
C 17.45 16.27 57.68                                                             
C 17.45 16.27 75.42                                                             
C 21.47 13.95  4.44                                                             
C 21.47 13.95 22.18                                                             
C 21.47 13.95 39.93                                                             
C 21.47 13.95 57.68                                                             
C 21.47 13.95 75.42                                                             
C 25.50 11.62  4.44                                                             
C 25.50 11.62 22.18                                                             
C 25.50 11.62 39.93                                                             
C 25.50 11.62 57.68                                                             
C 25.50 11.62 75.42                                                             
C 29.52  9.30  4.44                                                             
C 29.52  9.30 22.18                                                             
C 29.52  9.30 39.93                                                             
C 29.52  9.30 57.68                                                             
C 29.52  9.30 75.42                                                             
C 25.50 16.27  4.44                                                             
C 25.50 16.27 22.18                                                             
C 25.50 16.27 39.93                                                             
C 25.50 16.27 57.68                                                             
C 25.50 16.27 75.42                                                             
C 29.52 13.95  4.44                                                             
C 29.52 13.95 22.18                                                             
C 29.52 13.95 39.93                                                             
C 29.52 13.95 57.68                                                             
C 29.52 13.95 75.42                                                             
C  2.68  0.00 13.31                                                             
C  2.68  0.00 31.06                                                             
C  2.68  0.00 48.80                                                             
C  2.68  0.00 66.55                                                             
C  2.68  0.00 84.30                                                             
C  2.68  4.65 13.31                                                             
C  2.68  4.65 31.06                                                             
C  2.68  4.65 48.80                                                             
C  2.68  4.65 66.55                                                             
C  2.68  4.65 84.30                                                             
C  6.71  2.32 13.31                                                             
C  6.71  2.32 31.06                                                             
C  6.71  2.32 48.80                                                             
C  6.71  2.32 66.55                                                             
C  6.71  2.32 84.30                                                             
C 10.74  0.00 13.31                                                             
C 10.74  0.00 31.06                                                             
C 10.74  0.00 48.80                                                             
C 10.74  0.00 66.55                                                             
C 10.74  0.00 84.30                                                             
C  2.68  9.30 13.31                                                             
C  2.68  9.30 31.06                                                             
C  2.68  9.30 48.80                                                             
C  2.68  9.30 66.55                                                             
C  2.68  9.30 84.30                                                             
C  6.71  6.97 13.31                                                             
C  6.71  6.97 31.06                                                             
C  6.71  6.97 48.80                                                             
C  6.71  6.97 66.55                                                             
C  6.71  6.97 84.30                                                             
C 10.74  4.65 13.31                                                             
C 10.74  4.65 31.06                                                             
C 10.74  4.65 48.80                                                             
C 10.74  4.65 66.55                                                             
C 10.74  4.65 84.30                                                             
C 14.76  2.32 13.31                                                             
C 14.76  2.32 31.06                                                             
C 14.76  2.32 48.80                                                             
C 14.76  2.32 66.55                                                             
C 14.76  2.32 84.30                                                             
C 18.79  0.00 13.31                                                             
C 18.79  0.00 31.06                                                             
C 18.79  0.00 48.80                                                             
C 18.79  0.00 66.55                                                             
C 18.79  0.00 84.30                                                             
C  2.68 13.95 13.31                                                             
C  2.68 13.95 31.06                                                             
C  2.68 13.95 48.80                                                             
C  2.68 13.95 66.55                                                             
C  2.68 13.95 84.30                                                             
C  6.71 11.62 13.31                                                             
C  6.71 11.62 31.06                                                             
C  6.71 11.62 48.80                                                             
C  6.71 11.62 66.55                                                             
C  6.71 11.62 84.30                                                             
C 10.74  9.30 13.31                                                             
C 10.74  9.30 31.06                                                             
C 10.74  9.30 48.80                                                             
C 10.74  9.30 66.55                                                             
C 10.74  9.30 84.30                                                             
C 14.76  6.97 13.31                                                             
C 14.76  6.97 31.06                                                             
C 14.76  6.97 48.80                                                             
C 14.76  6.97 66.55                                                             
C 14.76  6.97 84.30                                                             
C 18.79  4.65 13.31                                                             
C 18.79  4.65 31.06                                                             
C 18.79  4.65 48.80                                                             
C 18.79  4.65 66.55                                                             
C 18.79  4.65 84.30                                                             
C 22.81  2.32 13.31                                                             
C 22.81  2.32 31.06                                                             
C 22.81  2.32 48.80                                                             
C 22.81  2.32 66.55                                                             
C 22.81  2.32 84.30                                                             
C 26.84  0.00 13.31                                                             
C 26.84  0.00 31.06                                                             
C 26.84  0.00 48.80                                                             
C 26.84  0.00 66.55                                                             
C 26.84  0.00 84.30                                                             
C  6.71 16.27 13.31                                                             
C  6.71 16.27 31.06                                                             
C  6.71 16.27 48.80                                                             
C  6.71 16.27 66.55                                                             
C  6.71 16.27 84.30                                                             
C 10.74 13.95 13.31                                                             
C 10.74 13.95 31.06                                                             
C 10.74 13.95 48.80                                                             
C 10.74 13.95 66.55                                                             
C 10.74 13.95 84.30                                                             
C 14.76 11.62 13.31                                                             
C 14.76 11.62 31.06                                                             
C 14.76 11.62 48.80                                                             
C 14.76 11.62 66.55                                                             
C 14.76 11.62 84.30                                                             
C 18.79  9.30 13.31                                                             
C 18.79  9.30 31.06                                                             
C 18.79  9.30 48.80                                                             
C 18.79  9.30 66.55                                                             
C 18.79  9.30 84.30                                                             
C 22.81  6.97 13.31                                                             
C 22.81  6.97 31.06                                                             
C 22.81  6.97 48.80                                                             
C 22.81  6.97 66.55                                                             
C 22.81  6.97 84.30                                                             
C 26.84  4.65 13.31                                                             
C 26.84  4.65 31.06                                                             
C 26.84  4.65 48.80                                                             
C 26.84  4.65 66.55                                                             
C 26.84  4.65 84.30                                                             
C 30.86  2.32 13.31                                                             
C 30.86  2.32 31.06                                                             
C 30.86  2.32 48.80                                                             
C 30.86  2.32 66.55                                                             
C 30.86  2.32 84.30                                                             
C 14.76 16.27 13.31                                                             
C 14.76 16.27 31.06                                                             
C 14.76 16.27 48.80                                                             
C 14.76 16.27 66.55                                                             
C 14.76 16.27 84.30                                                             
C 18.79 13.95 13.31                                                             
C 18.79 13.95 31.06                                                             
C 18.79 13.95 48.80                                                             
C 18.79 13.95 66.55                                                             
C 18.79 13.95 84.30                                                             
C 22.81 11.62 13.31                                                             
C 22.81 11.62 31.06                                                             
C 22.81 11.62 48.80                                                             
C 22.81 11.62 66.55                                                             
C 22.81 11.62 84.30                                                             
C 26.84  9.30 13.31                                                             
C 26.84  9.30 31.06                                                             
C 26.84  9.30 48.80                                                             
C 26.84  9.30 66.55                                                             
C 26.84  9.30 84.30                                                             
C 30.86  6.97 13.31                                                             
C 30.86  6.97 31.06                                                             
C 30.86  6.97 48.80                                                             
C 30.86  6.97 66.55                                                             
C 30.86  6.97 84.30                                                             
C 22.81 16.27 13.31                                                             
C 22.81 16.27 31.06                                                             
C 22.81 16.27 48.80                                                             
C 22.81 16.27 66.55                                                             
C 22.81 16.27 84.30                                                             
C 26.84 13.95 13.31                                                             
C 26.84 13.95 31.06                                                             
C 26.84 13.95 48.80                                                             
C 26.84 13.95 66.55                                                             
C 26.84 13.95 84.30                                                             
C 30.86 11.62 13.31                                                             
C 30.86 11.62 31.06                                                             
C 30.86 11.62 48.80                                                             
C 30.86 11.62 66.55                                                             
C 30.86 11.62 84.30                                                             
C 30.86 16.27 13.31                                                             
C 30.86 16.27 31.06                                                             
C 30.86 16.27 48.80                                                             
C 30.86 16.27 66.55                                                             
C 30.86 16.27 84.30                                                             
%ENDBLOCK POSITIONS_ABS                                                         

--------------------------------------------------------------------------------
-------------------------------- END INPUT FILE --------------------------------
--------------------------------------------------------------------------------


 
<<<<<<<<<<<<<<<<<<<<<<<<<<<<<<<<< Full system >>>>>>>>>>>>>>>>>>>>>>>>>>>>>>>>>>
<<<<<<<<<<<<<<<<<<<<<<<<<<< PAW Dataset information >>>>>>>>>>>>>>>>>>>>>>>>>>>
File: ~/pp/paw/c_pbe_abinit.paw; rc = 1.25 bohr; shape type =  3; rshape = 1.25 bohr;
  Atomic number:  6;  ionic charge:  4.000000
    Partial Wave 1: l = 0
    Partial Wave 2: l = 0
    Partial Wave 3: l = 1
    Partial Wave 4: l = 1
  Core charge supplied for Nonlinear Core Corrections
<<<<<<<<<<<<<<<<<<<<<<<<<<<<<<<<<<<<<<< >>>>>>>>>>>>>>>>>>>>>>>>>>>>>>>>>>>>>>>

-------------------------- Atom counting information ---------------------------
Symbol    Natoms    Nngwfs    Nprojs
  C        640      2560      5120
.......   ......    ......    ......
Totals:    640      2560      5120
--------------------------------------------------------------------------------

=============================== PSINC grid sizes ===============================
                      Simulation cell:   63 x  35 x 175
                              FFT-box:   63 x  35 x 117
                                  PPD:    7 x   5 x   1
Grid space d1=  0.511269841270a0 (KE cutoff=  29.06054Eh = 790.77748eV)
Grid space d2=  0.531142857143a0 (KE cutoff=  26.92659Eh = 732.70972eV)
Grid space d3=  0.507028571429a0 (KE cutoff=  29.54875Eh = 804.06244eV)
================================================================================
  
WARNING in cell_grid_distribute:
Average of less than one 23-slab per node, so workload cannot be
equally balanced between nodes.

********************* Fourier parallelisation information **********************
       Coarse grid (whole simulation cell) dimensions:     63    35   175
          Real-space ('12') slabs/node (min max mean):      4     5     4
         Recip-space ('23') slabs/node (min max mean):      0     1     0
********************************************************************************

********************* Fourier parallelisation information **********************
       Double grid (whole simulation cell) dimensions:    126    70   350
          Real-space ('12') slabs/node (min max mean):      8     9     8
         Recip-space ('23') slabs/node (min max mean):      1     2     1
********************************************************************************

Atom SCF Calculation for C  : Z (AE atom) =   6 : Z (PS atom) =   4
Config String: 2s2 2p2
Orbitals (num,occ):  2     2.00 2.00
Orbitals   (num,l):  2        0    1
Real-space Grid (nr,dr,rmax): 1293    0.0069659443    9.0000000000
Spherical Bessel Basis (nsws,lmax,cutoff):   37    2  161.4736382572
Confining potential (l,width,scale):  0    3.0000000000  100.0000000000
Confining potential (l,width,scale):  1    3.0000000000  100.0000000000
  1         -5.4129360987   -1.2444937266    4.5135257941   -1.5420271367
  2         -5.3444202281   -1.3377187790    4.4131101426   -1.5071921700
  3         -5.3525226456   -1.3566567794    4.3924752240   -1.5004938544
  4         -5.3561013121   -1.3623552809    4.3862114699   -1.4986199617
  5         -5.3580093800   -1.3653574582    4.3828991843   -1.4976654093
  6         -5.3590276761   -1.3669475005    4.3811409016   -1.4971696795
  7         -5.3595688314   -1.3677934914    4.3802040659   -1.4969088858
  8         -5.3598556216   -1.3682449178    4.3797036984   -1.4967706290
  9         -5.3600074081   -1.3684862338    4.3794360452   -1.4966970063
 10         -5.3600877081   -1.3686153812    4.3792927313   -1.4966576988
 11         -5.3601301919   -1.3686845537    4.3792159394   -1.4966366788
 12         -5.3601526758   -1.3687216261    4.3791747687   -1.4966254262
 13         -5.3601645804   -1.3687415049    4.3791526850   -1.4966193980
 14         -5.3601708871   -1.3687521691    4.3791408341   -1.4966161667
 15         -5.3601742301   -1.3687578926    4.3791344719   -1.4966144337
 16         -5.3601760032   -1.3687609656    4.3791310549   -1.4966135039
 17         -5.3601769442   -1.3687626162    4.3791292190   -1.4966130048
 18         -5.3601774440   -1.3687635032    4.3791282322   -1.4966127369
 19         -5.3601777096   -1.3687639799    4.3791277016   -1.4966125929
 20         -5.3601778508   -1.3687642363    4.3791274162   -1.4966125155
 21         -5.3601779259   -1.3687643743    4.3791272626   -1.4966124740
Atom SCF converged after  21 iterations to a total energy of     -5.36017793

Determining parallel strategy ...
... using space-filling curve
... NGWF load balancing: max     64;  min     64;  average     64
... Projector load balancing: max    128;  min    128;  average    128
... done
Calculating Ewald energy ...
              Ewald: real-space energy =    9654.819042
        Ewald: reciprocal-space energy =       4.452557
         Ewald: (sum_charge)**2 Energy =   10114.468781
         Ewald: (sum_charge**2) Energy =     799.618967
                          Ewald Energy =   -1254.816148
Basis initialisation ...... NGWF spheres initialised
... Projector spheres initialised
... NGWF tight boxes initialised
... Projector tight boxes initialised
... Tight-boxes gathered
... NGWF basis size (local,global):     692500  27889536
... PAW projector initialisation
... done

============================= Charge Augmentation ==============================
                           Aug box size:   11 x  11 x  11
================================================================================

========================== Sparse matrix information ===========================
                        Overlap matrix filling:  29.06%
                        Density kernel filling: 100.00%
              NGWF-Proj overlap matrix filling:   7.97%
                    Aug Overlap matrix filling:  35.62%
                    Hamiltonian matrix filling:  35.62%
                  NGWF diagonal matrix filling:   0.16%
                             KS matrix filling: 100.00% 
                           KSKS matrix filling: 100.00% 
================================================================================

Sparse matrix initialisation ... done
NGWF initialisation ...... done
============ Calculation of NGWF S^-1 using Hotelling algorithm ================ 
         Iteration  |  Frobenius norm and Maximum abs value    (of I-S*S_n^-1)   
               1       0.48754901E+02     0.97188414E+00
               2       0.47339781E+02     0.94578551E+00
               3       0.45300761E+02     0.89883119E+00
               4       0.42753887E+02     0.82149919E+00
               5       0.39759857E+02     0.71678954E+00
               6       0.36390712E+02     0.66488729E+00
               7       0.33027790E+02     0.62090263E+00
               8       0.29809827E+02     0.58335263E+00
               9       0.26190751E+02     0.53722494E+00
              10       0.21503869E+02     0.46191018E+00
              11       0.15449905E+02     0.34500921E+00
              12       0.87376534E+01     0.19832543E+00
              13       0.32395569E+01     0.70935546E-01
              14       0.53274561E+00     0.10602390E-01
              15       0.17103909E-01     0.29283352E-03
              16       0.23174395E-04     0.29022802E-06
              17       0.65220326E-10     0.49171778E-12
================================================================================
Calculating core density ...
================================= Core Density =================================
               Core den box size:   21 x  21 x  21
================================================================================
 ... done
Up spin density kernel initialisation ...... done

Writing density kernel to file "4.69556_GO_manual_4x64graphite.dkn" ... done

>>> Optimising kernel for current NGWFs:

--------------------------- Ensemble-DFT optimisation --------------------------
Running ScaLAPACK on   40 processor(s).

--------------------------------------------------------------------------------
  Iter                              Commutator    Free_energy(A=E-TS)     DeltaA
#    0                          0.000023273860   -3613.69309599218514  -3.61E+03

Step                       =       0.381966011250
Energy                     =   -3613.693072468332
Entropy (-TS)              =      -0.000023523845
Free energy (A=E-TS)       =   -3613.693095992185
Est. 0K Energy 0.5*(E+A)   =   -3613.693084230258
Residual Non-orthogonality =       0.000000000000
Residual N_electrons       =      -0.000000000009

Spin          Integrated_Ne            Fermi_level     Delta_Fermi_level
   1      2560.000000000118         0.073849744997              7.38E-02

                           Spin 1          
     Orb      H-eigenvalues     Occupancies
       1 |    -0.6494152571    1.0000000000 | 
                          ------
    1276 |     0.0368461270    0.9999915794 | 
    1277 |     0.0368471000    0.9999915768 | 
    1278 |     0.0368937886    0.9999914517 | 
    1279 |     0.0368952861    0.9999914476 | 
    1280 |     0.0369200309    0.9999913806 | 
                 - Gap at zero temperature -
    1281 |     0.1109898039    0.0000080655 | 
    1282 |     0.1109905966    0.0000080635 | 
    1283 |     0.1109947113    0.0000080530 | 
    1284 |     0.1109963189    0.0000080490 | 
    1285 |     0.1109988260    0.0000080426 | 
                          ------
    2560 |     0.9145087022    0.0000000000 | 

                       |  Abs_value |  Threshold | Converged
     Delta_Free_energy |   3.61E+03 |   1.00E-06 |        No
     Delta_Energy      |   3.61E+03 |   1.00E-04 |        No
     Delta_Entropy     |   2.35E-05 |   1.00E-04 |       Yes
     Commutator        |   2.33E-05 |   1.00E-05 |        No
     Delta_Fermi_level |   7.38E-02 |   1.00E-03 |        No

  Line search of the free energy minimum:
  Step_type        Step             Free_energy   Predicted_free_energy
.   Initial    0.000000    -3613.69309599218514
.    Trial1    0.381966    -3613.69376885462407
.    Trial2    0.618034    -3613.69382388990607
. Quadratic    0.547134    -3613.69383649982092    -3613.69383632146719

--------------------------------------------------------------------------------
  Iter                              Commutator    Free_energy(A=E-TS)     DeltaA
#    1                          0.000013199682   -3613.69383649982092  -7.41E-04

Step                       =       0.547134302044
Energy                     =   -3613.693811273875
Entropy (-TS)              =      -0.000025225953
Free energy (A=E-TS)       =   -3613.693836499821
Est. 0K Energy 0.5*(E+A)   =   -3613.693823886848
Residual Non-orthogonality =       0.000000000000
Residual N_electrons       =       0.000000000007

Spin          Integrated_Ne            Fermi_level     Delta_Fermi_level
   1      2559.999999999893         0.066845249593             -7.00E-03

                           Spin 1          
     Orb      H-eigenvalues     Occupancies
       1 |    -0.6570677207    1.0000000000 | 
                          ------
    1276 |     0.0300136236    0.9999911094 | 
    1277 |     0.0300149868    0.9999911056 | 
    1278 |     0.0300356240    0.9999910474 | 
    1279 |     0.0300373738    0.9999910425 | 
    1280 |     0.0300493086    0.9999910087 | 
                 - Gap at zero temperature -
    1281 |     0.1036829735    0.0000088735 | 
    1282 |     0.1036840638    0.0000088704 | 
    1283 |     0.1036876738    0.0000088603 | 
    1284 |     0.1036888705    0.0000088570 | 
    1285 |     0.1036917939    0.0000088488 | 
                          ------
    2560 |     0.9051339865    0.0000000000 | 

                       |  Abs_value |  Threshold | Converged
     Delta_Free_energy |   7.41E-04 |   1.00E-06 |        No
     Delta_Energy      |   7.39E-04 |   1.00E-04 |        No
     Delta_Entropy     |   1.70E-06 |   1.00E-04 |       Yes
     Commutator        |   1.32E-05 |   1.00E-05 |        No
     Delta_Fermi_level |   7.00E-03 |   1.00E-03 |        No

  Line search of the free energy minimum:
  Step_type        Step             Free_energy   Predicted_free_energy
.   Initial    0.000000    -3613.69383649982092
.    Trial1    0.547134    -3613.69388904283187
.    Trial2    0.720114    -3613.69363649089564
. Quadratic    0.295788    -3613.69402509741849    -3613.69402555290071

--------------------------------------------------------------------------------
  Iter                              Commutator    Free_energy(A=E-TS)     DeltaA
#    2                          0.000007015472   -3613.69402509741849  -1.89E-04

Step                       =       0.295788464539
Energy                     =   -3613.693999436460
Entropy (-TS)              =      -0.000025660917
Free energy (A=E-TS)       =   -3613.694025097418
Est. 0K Energy 0.5*(E+A)   =   -3613.694012266939
Residual Non-orthogonality =       0.000000000000
Residual N_electrons       =      -0.000000000041

Spin          Integrated_Ne            Fermi_level     Delta_Fermi_level
   1      2560.000000000637         0.065127813501             -1.72E-03

                           Spin 1          
     Orb      H-eigenvalues     Occupancies
       1 |    -0.6589494669    1.0000000000 | 
                          ------
    1276 |     0.0283743797    0.9999908872 | 
    1277 |     0.0283758394    0.9999908830 | 
    1278 |     0.0283914401    0.9999908379 | 
    1279 |     0.0283931523    0.9999908330 | 
    1280 |     0.0284024636    0.9999908060 | 
                 - Gap at zero temperature -
    1281 |     0.1019279672    0.0000089794 | 
    1282 |     0.1019291180    0.0000089761 | 
    1283 |     0.1019326483    0.0000089661 | 
    1284 |     0.1019336973    0.0000089632 | 
    1285 |     0.1019366761    0.0000089547 | 
                          ------
    2560 |     0.9028242836    0.0000000000 | 

                       |  Abs_value |  Threshold | Converged
     Delta_Free_energy |   1.89E-04 |   1.00E-06 |        No
     Delta_Energy      |   1.88E-04 |   1.00E-04 |        No
     Delta_Entropy     |   4.35E-07 |   1.00E-04 |       Yes
     Commutator        |   7.02E-06 |   1.00E-05 |       Yes
     Delta_Fermi_level |   1.72E-03 |   1.00E-03 |        No

  Line search of the free energy minimum:
  Step_type        Step             Free_energy   Predicted_free_energy
.   Initial    0.000000    -3613.69402509741849
.    Trial1    0.295788    -3613.69407906347897
.    Trial2    0.564773    -3613.69407948590788
. Quadratic    0.432733    -3613.69408508018978    -3613.69408506965920

--------------------------------------------------------------------------------
  Iter                              Commutator    Free_energy(A=E-TS)     DeltaA
#    3                          0.000004606659   -3613.69408508018978  -6.00E-05

Step                       =       0.432732699593
Energy                     =   -3613.694058970314
Entropy (-TS)              =      -0.000026109792
Free energy (A=E-TS)       =   -3613.694085080190
Est. 0K Energy 0.5*(E+A)   =   -3613.694072025252
Residual Non-orthogonality =       0.000000000000
Residual N_electrons       =      -0.000000000084

Spin          Integrated_Ne            Fermi_level     Delta_Fermi_level
   1      2560.000000001324         0.063354170964             -1.77E-03

                           Spin 1          
     Orb      H-eigenvalues     Occupancies
       1 |    -0.6608827115    1.0000000000 | 
                          ------
    1276 |     0.0266644397    0.9999907020 | 
    1277 |     0.0266659663    0.9999906975 | 
    1278 |     0.0266770096    0.9999906650 | 
    1279 |     0.0266786167    0.9999906603 | 
    1280 |     0.0266855258    0.9999906399 | 
                 - Gap at zero temperature -
    1281 |     0.1001001829    0.0000091342 | 
    1282 |     0.1001013835    0.0000091308 | 
    1283 |     0.1001048336    0.0000091208 | 
    1284 |     0.1001057433    0.0000091182 | 
    1285 |     0.1001087573    0.0000091095 | 
                          ------
    2560 |     0.9004555806    0.0000000000 | 

                       |  Abs_value |  Threshold | Converged
     Delta_Free_energy |   6.00E-05 |   1.00E-06 |        No
     Delta_Energy      |   5.95E-05 |   1.00E-04 |       Yes
     Delta_Entropy     |   4.49E-07 |   1.00E-04 |       Yes
     Commutator        |   4.61E-06 |   1.00E-05 |       Yes
     Delta_Fermi_level |   1.77E-03 |   1.00E-03 |        No

  Line search of the free energy minimum:
  Step_type        Step             Free_energy   Predicted_free_energy
.   Initial    0.000000    -3613.69408508018978
.    Trial1    0.432733    -3613.69410365949943
.    Trial2    0.649410    -3613.69407709339748
. Quadratic    0.300582    -3613.69410810160025    -3613.69410811125044

--------------------------------------------------------------------------------
  Iter                              Commutator    Free_energy(A=E-TS)     DeltaA
#    4                          0.000002719578   -3613.69410810160025  -2.30E-05

Step                       =       0.300581584773
Energy                     =   -3613.694081813600
Entropy (-TS)              =      -0.000026287972
Free energy (A=E-TS)       =   -3613.694108101600
Est. 0K Energy 0.5*(E+A)   =   -3613.694094957600
[...]
 C   160 -- C   385       -0.10      5.37000
 C   159 -- C   384       -0.10      5.37000
 C   158 -- C   383       -0.10      5.37000
 C   157 -- C   382       -0.10      5.37000
 C   156 -- C   381       -0.10      5.37000
 C   155 -- C   355       -0.10      5.37000
 C   154 -- C   354       -0.10      5.37000
 C   153 -- C   353       -0.10      5.37000
 C   152 -- C   352       -0.10      5.37000
 C   151 -- C   351       -0.10      5.37000
 C   140 -- C   335       -0.10      5.37000
 C   139 -- C   334       -0.10      5.37000
 C   138 -- C   333       -0.10      5.37000
 C   137 -- C   332       -0.10      5.37000
 C   136 -- C   331       -0.10      5.37000
 C   115 -- C   325       -0.10      5.37000
 C   114 -- C   324       -0.10      5.37000
 C   113 -- C   323       -0.10      5.37000
 C   112 -- C   322       -0.10      5.37000
 C   111 -- C   321       -0.10      5.37000
 C   219 -- C   569       -0.10      5.37202
 C   218 -- C   568       -0.10      5.37202
 C   217 -- C   567       -0.10      5.37202
 C   216 -- C   566       -0.10      5.37202
 C   250 -- C   540       -0.10      5.37202
 C   249 -- C   539       -0.10      5.37202
 C   248 -- C   538       -0.10      5.37202
 C   247 -- C   537       -0.10      5.37202
 C   246 -- C   536       -0.10      5.37202
 C   220 -- C   570       -0.10      5.37202
 C   285 -- C   580       -0.10      5.37202
 C   284 -- C   579       -0.10      5.37202
 C   283 -- C   578       -0.10      5.37202
 C   282 -- C   577       -0.10      5.37202
 C   281 -- C   576       -0.10      5.37202
 C   260 -- C   605       -0.10      5.37202
 C   259 -- C   604       -0.10      5.37202
 C   258 -- C   603       -0.10      5.37202
 C   257 -- C   602       -0.10      5.37202
 C   256 -- C   601       -0.10      5.37202
 C   220 -- C   515       -0.10      5.37202
 C   219 -- C   514       -0.10      5.37202
 C   218 -- C   513       -0.10      5.37202
 C   217 -- C   512       -0.10      5.37202
 C   216 -- C   511       -0.10      5.37202
 C   195 -- C   540       -0.10      5.37202
 C   195 -- C   500       -0.10      5.37202
 C   194 -- C   539       -0.10      5.37202
 C   194 -- C   499       -0.10      5.37202
 C   193 -- C   538       -0.10      5.37202
 C   193 -- C   498       -0.10      5.37202
 C   192 -- C   537       -0.10      5.37202
 C   192 -- C   497       -0.10      5.37202
 C   191 -- C   536       -0.10      5.37202
 C   191 -- C   496       -0.10      5.37202
 C   180 -- C   515       -0.10      5.37202
 C   179 -- C   514       -0.10      5.37202
 C   178 -- C   513       -0.10      5.37202
 C   177 -- C   512       -0.10      5.37202
 C   176 -- C   511       -0.10      5.37202
 C    11 -- C   331       -0.10      5.37202
 C   205 -- C   550       -0.10      5.37202
 C   204 -- C   549       -0.10      5.37202
 C   203 -- C   548       -0.10      5.37202
 C   202 -- C   547       -0.10      5.37202
 C   201 -- C   546       -0.10      5.37202
 C    95 -- C   425       -0.10      5.37202
 C    95 -- C   365       -0.10      5.37202
 C    94 -- C   424       -0.10      5.37202
 C    94 -- C   364       -0.10      5.37202
 C    93 -- C   423       -0.10      5.37202
 C    93 -- C   363       -0.10      5.37202
 C    92 -- C   422       -0.10      5.37202
 C    92 -- C   362       -0.10      5.37202
 C    91 -- C   421       -0.10      5.37202
 C    91 -- C   361       -0.10      5.37202
 C    40 -- C   365       -0.10      5.37202
 C    39 -- C   364       -0.10      5.37202
 C    38 -- C   363       -0.10      5.37202
 C    37 -- C   362       -0.10      5.37202
 C    36 -- C   361       -0.10      5.37202
 C    15 -- C   335       -0.10      5.37202
 C    65 -- C   395       -0.10      5.37202
 C    65 -- C   345       -0.10      5.37202
 C    64 -- C   394       -0.10      5.37202
 C    64 -- C   344       -0.10      5.37202
 C    63 -- C   393       -0.10      5.37202
 C    30 -- C   355       -0.10      5.37202
 C    63 -- C   343       -0.10      5.37202
 C    62 -- C   392       -0.10      5.37202
 C    30 -- C   325       -0.10      5.37202
 C    14 -- C   334       -0.10      5.37202
 C    62 -- C   342       -0.10      5.37202
 C    61 -- C   391       -0.10      5.37202
 C    29 -- C   354       -0.10      5.37202
 C    61 -- C   341       -0.10      5.37202
 C    29 -- C   324       -0.10      5.37202
 C   260 -- C   550       -0.10      5.37202
 C   259 -- C   549       -0.10      5.37202
 C    28 -- C   353       -0.10      5.37202
 C   258 -- C   548       -0.10      5.37202
 C   257 -- C   547       -0.10      5.37202
 C   256 -- C   546       -0.10      5.37202
 C    28 -- C   323       -0.10      5.37202
 C    27 -- C   352       -0.10      5.37202
 C    13 -- C   333       -0.10      5.37202
 C    27 -- C   322       -0.10      5.37202
 C   120 -- C   395       -0.10      5.37202
 C    26 -- C   351       -0.10      5.37202
 C   119 -- C   394       -0.10      5.37202
 C   118 -- C   393       -0.10      5.37202
 C    55 -- C   335       -0.10      5.37202
 C   117 -- C   392       -0.10      5.37202
 C    26 -- C   321       -0.10      5.37202
 C   116 -- C   391       -0.10      5.37202
 C    54 -- C   334       -0.10      5.37202
 C    12 -- C   332       -0.10      5.37202
 C    53 -- C   333       -0.10      5.37202
 C   230 -- C   580       -0.10      5.37202
 C   230 -- C   525       -0.10      5.37202
 C   229 -- C   579       -0.10      5.37202
 C   229 -- C   524       -0.10      5.37202
 C   228 -- C   578       -0.10      5.37202
 C    52 -- C   332       -0.10      5.37202
 C   228 -- C   523       -0.10      5.37202
 C   227 -- C   577       -0.10      5.37202
 C   227 -- C   522       -0.10      5.37202
 C   226 -- C   576       -0.10      5.37202
 C   226 -- C   521       -0.10      5.37202
 C    51 -- C   331       -0.10      5.37202
 C    23 -- C   478       -0.10      5.37202
 C    49 -- C   469       -0.10      5.37202
 C    48 -- C   468       -0.10      5.37202
 C    47 -- C   467       -0.10      5.37202
 C    22 -- C   477       -0.10      5.37202
 C    46 -- C   466       -0.10      5.37202
 C    21 -- C   476       -0.10      5.37202
 C    85 -- C   355       -0.10      5.37202
 C    84 -- C   354       -0.10      5.37202
 C    83 -- C   353       -0.10      5.37202
 C    82 -- C   352       -0.10      5.37202
 C    81 -- C   351       -0.10      5.37202
 C    55 -- C   385       -0.10      5.37202
 C    54 -- C   384       -0.10      5.37202
 C    25 -- C   480       -0.10      5.37202
 C    53 -- C   383       -0.10      5.37202
 C    52 -- C   382       -0.10      5.37202
 C    51 -- C   381       -0.10      5.37202
 C    24 -- C   479       -0.10      5.37202
 C    50 -- C   470       -0.10      5.37202
 C    24 -- C   449       -0.10      5.37202
 C     6 -- C   416       -0.10      5.37202
 C    23 -- C   448       -0.10      5.37202
 C    22 -- C   447       -0.10      5.37202
 C    10 -- C   470       -0.10      5.37202
 C     5 -- C   450       -0.10      5.37202
 C    21 -- C   446       -0.10      5.37202
 C    10 -- C   420       -0.10      5.37202
 C     9 -- C   469       -0.10      5.37202
 C     9 -- C   419       -0.10      5.37202
 C     8 -- C   468       -0.10      5.37202
 C     4 -- C   449       -0.10      5.37202
 C   150 -- C   440       -0.10      5.37202
 C   149 -- C   439       -0.10      5.37202
 C   148 -- C   438       -0.10      5.37202
 C   147 -- C   437       -0.10      5.37202
 C     8 -- C   418       -0.10      5.37202
 C   146 -- C   436       -0.10      5.37202
 C     2 -- C   447       -0.10      5.37202
 C   135 -- C   460       -0.10      5.37202
 C     7 -- C   467       -0.10      5.37202
 C   134 -- C   459       -0.10      5.37202
 C   133 -- C   458       -0.10      5.37202
 C   132 -- C   457       -0.10      5.37202
 C   131 -- C   456       -0.10      5.37202
 C     7 -- C   417       -0.10      5.37202
 C     1 -- C   446       -0.10      5.37202
 C     6 -- C   466       -0.10      5.37202
 C    25 -- C   450       -0.10      5.37202
 C     3 -- C   448       -0.10      5.37202
 C   106 -- C   436       -0.10      5.37202
 C   106 -- C   376       -0.10      5.37202
 C    80 -- C   410       -0.10      5.37202
 C    79 -- C   409       -0.10      5.37202
 C    78 -- C   408       -0.10      5.37202
 C    77 -- C   407       -0.10      5.37202
 C    76 -- C   406       -0.10      5.37202
 C   135 -- C   410       -0.10      5.37202
 C   134 -- C   409       -0.10      5.37202
 C   133 -- C   408       -0.10      5.37202
 C   132 -- C   407       -0.10      5.37202
 C   131 -- C   406       -0.10      5.37202
 C   110 -- C   440       -0.10      5.37202
 C   110 -- C   380       -0.10      5.37202
 C   109 -- C   439       -0.10      5.37202
 C   109 -- C   379       -0.10      5.37202
 C   108 -- C   438       -0.10      5.37202
 C   108 -- C   378       -0.10      5.37202
 C   107 -- C   437       -0.10      5.37202
 C   107 -- C   377       -0.10      5.37202
 C   215 -- C   635       -0.10      5.38000
 C   214 -- C   634       -0.10      5.38000
 C   213 -- C   633       -0.10      5.38000
 C   212 -- C   632       -0.10      5.38000
 C   211 -- C   631       -0.10      5.38000
 C   190 -- C   620       -0.10      5.38000
 C   189 -- C   619       -0.10      5.38000
 C   188 -- C   618       -0.10      5.38000
 C   187 -- C   617       -0.10      5.38000
 C   186 -- C   616       -0.10      5.38000
 C   175 -- C   595       -0.10      5.38000
 C   174 -- C   594       -0.10      5.38000
 C   173 -- C   593       -0.10      5.38000
 C   172 -- C   592       -0.10      5.38000
 C   171 -- C   591       -0.10      5.38000
 C   245 -- C   640       -0.10      5.38000
 C   244 -- C   639       -0.10      5.38000
 C   243 -- C   638       -0.10      5.38000
 C   242 -- C   637       -0.10      5.38000
 C   241 -- C   636       -0.10      5.38000
==================================================


=================== Orbital energy and occupancy information ===================

      Total number of orbitals:    2560
        Occupancy sum (kernel):    1279.999999999
   Occupancy sum (eigenvalues):    1279.999999999
                 HOMO-LUMO gap:       0.071382423 Eh
                 Mid-gap level:       0.139594402 Eh

                        Orbital | Energy (Eh) | Occupancy
                            1    -0.575457278   1.0000000
                        .......   ...........   .........
                         1271     0.102693752   0.9999900
                         1272     0.102696546   0.9999900
                         1273     0.103164975   0.9999884
                         1274     0.103167784   0.9999884
                         1275     0.103224622   0.9999882
                         1276     0.103225717   0.9999882
                         1277     0.103430469   0.9999874
                         1278     0.103696981   0.9999863
                         1279     0.103698063   0.9999863
                         1280     0.103903191   0.9999854
                        ....... -- gap at 0K -- .........
                         1281     0.175285614   0.0000110
                         1282     0.175287676   0.0000110
                         1283     0.175310810   0.0000109
                         1284     0.175311927   0.0000109
                         1285     0.175326898   0.0000109
                         1286     0.175526855   0.0000102
                         1287     0.175528900   0.0000102
                         1288     0.175551295   0.0000101
                         1289     0.175552424   0.0000101
                         1290     0.175566948   0.0000101
                        .......   ...........   .........
                         2560     1.043248465   0.0000000

================================================================================

===================== Writing canonical molecular orbitals =====================
| Orbital  Energy (eV)  Norm     |
| HOMO      2.82734969  1.000000 | Writing "4.69556_GO_manual_4x64graphite_HOMO.cube" ... done
Writing "4.69556_GO_manual_4x64graphite_HOMO.dx" ... done
| LUMO      4.76976425  1.000000 | Writing "4.69556_GO_manual_4x64graphite_LUMO.cube" ... done
Writing "4.69556_GO_manual_4x64graphite_LUMO.dx" ... done
================================================================================
 
===================== Density of States (DOS) calculation ======================
Writing "4.69556_GO_manual_4x64graphite_DOS.txt" ...  done
================================================================================
 
Writing bands to file "4.69556_GO_manual_4x64graphite.val_bands" ... done
 
================ Projected Density of States (pDOS) calculation ================
 
Constructing AM resolved functions  ...... done
Writing NGWF plot files in formats: CUBE DX ...  done
 
Performing overlap integrals ...  done
 
Computing pDOS weights ...  done
 
All bands spilling parameter =   2.77 %
Occupancy-weighted spilling parameter =   1.00 %
 
 => Outputting data for OptaDOS <=
 
Writing pDOS weights to file "4.69556_GO_manual_4x64graphite.val_pdos_bin" ... done
 
Writing band gradients to file "4.69556_GO_manual_4x64graphite.val_dome_bin" ... done
 
Writing Castep output cell file to "4.69556_GO_manual_4x64graphite-out.cell" ... done
 
 => Computing Gaussian smeared pDOS <= 
Writing "4.69556_GO_manual_4x64graphite_PDOS.txt" ...  done
 
 => Computing Occupancy-weighted Gaussian smeared pDOS <= 
Writing "4.69556_GO_manual_4x64graphite_occ_PDOS.txt" ...  done
  => Band centres: 
 S band centre of group 1:  -13.582762 eV
 P band centre of group 1:   -6.504316 eV
  Band centres done. <=
  => Integrated number of electrons in each AM band: 
 S num electrons of group 1:  571.405465
 P num electrons of group 1: 1963.001420
  Integrated number of electrons done. <=
================================================================================

------------------------------ TIMING INFORMATION ------------------------------
AVERAGE TIME:    2539.807s on     40 node(s)                                    
TOTAL TIME:      2539.809s on     40 node(s)                                    
================= AVERAGE TIMINGS FROM ALL NODES (CUMULATIVE) ==================
|| TAG                                    #calls    cpu time   %total  Gflops ||
|| work_imbalance                       :     1        0.00s   0.000%  ------ ||
|| paw_tcore_hartree_on_grid            :     1        0.01s   0.000%  ------ ||
|| paw_tcore_density                    :     1        0.01s   0.000%  ------ ||
|| paw_sphere_density_on_grid           :     1        0.01s   0.001%  ------ ||
|| sparse_set_to_garbage                :   135        0.02s   0.001%  ------ ||
|| paw_dij_hartree                      :   268        0.03s   0.001%  ------ ||
|| basis_extract_function_from_box      :  1536        0.06s   0.003%  ------ ||
|| pseudo_make_structure_factor         :     1        0.08s   0.003%  ------ ||
|| paw_species_calc_proj_prec_mat       :     1        0.12s   0.005%  ------ ||
|| paw_dataset_init                     :     1        0.15s   0.006%  ------ ||
|| density_init_guess_real              :     1        0.19s   0.008%  ------ ||
|| ngwfs_initialise_from_radial         :     2        0.67s   0.026%  ------ ||
|| restart_kernel_write                 :    13        0.85s   0.033%  ------ ||
|| sparse_init                          :     1        0.85s   0.034%  ------ ||
|| dense_normal_eigensolve              :     1        1.21s   0.048%  ------ ||
|| hartree_on_grid                      :   203        1.60s   0.063%  ------ ||
|| projectors_init_fftbox_recip         :   121        2.37s   0.093%  ------ ||
|| fourier_apply_box_pair               :  2272        3.77s   0.149% 558.665 ||
|| basis_copy_function_to_box           : 19264        4.15s   0.164%  ------ ||
|| augmentation_screen_dij              :   208        4.61s   0.181%  ------ ||
|| ewald_calculate_energy               :     1        5.17s   0.204%  ------ ||
|| sparse_embed_hotelling_invert_embed  :    23        6.70s   0.264%  ------ ||
|| sw_init                              :     1        6.73s   0.265%  ------ ||
|| ngwf_gradient_coeffs                 :    12        8.37s   0.330%  ------ ||
|| sparse_trace                         :  2424        9.64s   0.380%  ------ ||
|| fourier_apply_cell_backward          :  6264       16.36s   0.644%  64.403 ||
|| cell_grid_extract_box_real           :  8076       16.83s   0.663%  ------ ||
|| fourier_apply_cell_forward           :  5859       17.27s   0.680%  57.042 ||
|| cell_grid_deposit_box_real           : 26160       17.42s   0.686%  ------ ||
|| paw_dij_xc                           :   268       21.51s   0.847%  ------ ||
|| aug_nonlocal_mat                     :   256       26.84s   1.057%  ------ ||
|| density_fftbox_deposit_to_cell       : 12992       35.13s   1.383%  ------ ||
|| augmentation_density_on_grid         :   203       36.26s   1.428%  ------ ||
|| function_ops_brappd_ketppd           :    48       37.31s   1.469%  ------ ||
|| projectors_func_ovlp_box             :    24       37.72s   1.485%  ------ ||
|| hamiltonian_energy_components        :     3       38.84s   1.529%  ------ ||
|| eigenstates_pdos                     :     1       54.02s   2.127%  ------ ||
|| integrals_kinetic                    :    23       56.52s   2.225%  ------ ||
|| eigenstates_calculate                :     1       58.76s   2.314%  ------ ||
|| xc_energy_potential                  :   202       72.40s   2.850%  ------ ||
|| nlxc_vdw_energy                      :   404       78.77s   3.101%  ------ ||
|| dense_eigensolve                     :   176       91.71s   3.611%  ------ ||
|| potential_apply_to_ngwf_batch        :   248       97.48s   3.838%  ------ ||
|| sparse_product                       :  2476       98.60s   3.882%  ------ ||
|| properties_calculate                 :     1      109.00s   4.292%  ------ ||
|| basis_dot_function_with_box          : 4.127M     111.96s   4.408%  ------ ||
|| restart_ngwfs_tightbox_output        :    11      119.70s   4.713%  ------ ||
|| projectors_gradient_batch            :    48      146.99s   5.787%  ------ ||
|| integrals_locpot_mat_els_batch       :   248      152.06s   5.987%  ------ ||
|| fourier_apply_box                    : 60976      188.96s   7.440% 976.140 ||
|| edft_diag_ngwf_ham                   :   175      200.66s   7.901%  ------ ||
|| projectors_grad_precond_batch        :    48      200.68s   7.901%  ------ ||
|| integrals_locpot_dbl_grid            :    62      250.40s   9.859%  ------ ||
|| density_fftbox_interpolate_multiply  : 12992      252.00s   9.922%  ------ ||
|| basis_add_function_to_box            : 11.95M     314.79s  12.394%  ------ ||
|| density_batch_interp_deposit         :   812      319.02s  12.561%  ------ ||
|| ngwf_gradient_build_batch            :    48      384.21s  15.128%  ------ ||
|| edft_apply_smearing_operator         :   175      387.59s  15.261%  ------ ||
|| density_batch_row_sums               :   812      446.52s  17.581%  ------ ||
|| ngwf_gradient_batch                  :    48      512.48s  20.178%  ------ ||
|| ngwf_gradient_lnv                    :    12      537.32s  21.156%  ------ ||
|| density_on_dbl_grid                  :   203      777.94s  30.630%  ------ ||
|| hamiltonian_lhxc_calculate           :   198      874.04s  34.414%  ------ ||
|| edft_calculate                       :    12     1506.07s  59.299%  ------ ||
|| ngwf_cg_optimise                     :     1     2411.19s  94.936%  ------ ||
|| total_time                           :     1     2539.81s 100.000%  ------ ||
================================================================================
Overhead of generating timer report: 
- 0 ms averaging over threads,
- 6 ms ensuring consistency across MPI ranks,
- 0 ms printing in order.

Job completed: 05-03-2020 11:18 (-0000)

