 +---------------------------------------------------------------+
 |                                                               |
 |        ####### #     # ####### ####### ####### ######         |
 |        #     # ##    # #          #    #       #     #        |
 |        #     # # #   # #          #    #       #     #        |
 |        #     # #  #  # #####      #    #####   ######         |
 |        #     # #   # # #          #    #       #              |
 |        #     # #    ## #          #    #       #              |
 |        ####### #     # #######    #    ####### #              |
 |                                                               |
 |        Linear-Scaling Ab Initio Total Energy Program          |
 |                                                               |
 |          Release for academic collaborators of ODG            |
 |                                             Version 5.3.2.12  |
 |                                                               |
 +---------------------------------------------------------------+
 |                                                               |
 |  Authors:                                                     |
 |  Jacek Dziedzic, Peter D. Haynes, Nicholas D. M. Hine,        |
 |  Arash. A. Mostofi, Mike C. Payne and Chris-Kriton Skylaris   |
 |                                                               |
 |  Contributors:                                                |
 |  J. Aarons, L. Andrinopoulos, P. W. Avraam, R. A. Bell,       |
 |  A. Bhandari, G. A. Bramley, R. J. Charlton, S. J. Clark,     |
 |  R. J. Clements, G. C. Constantinescu, F. Corsetti,           |
 |  N. Corsini, O. Dieguez, S. M. M. Dubois, K. K. B. Duff,      |
 |  J. M. Escartin, A. Greco, H. Helal, Q. O. Hill, L. P. Lee,   |
 |  J.-H. Li, E. B. Linscott, G. Moynihan, D. D. O`Regan,        |
 |  O. K. Okan, M. J. S. Phipps, C. J. Pickard,                  |
 |  J. C. A. Prentice, M. I. J. Probert, L. E. Ratcliff,         |
 |  M. Robinson, A. Ruiz Serrano, J. S. Spencer, E. W. Tait,     |
 |  G. Teobaldi, D. Turban, V. Vitale, K. A. Wilkinson,          |
 |  C. Weber, J. C. Womack, N. Yeung and T. J. Zuehlsdorff       |
 |                                                               |
 |                                   Copyright (c) 2004-2020     |
 |                                                               |
 |  Please cite:                                                 |
 |  "Introducing ONETEP: Linear-scaling density functional       |
 |   simulations on parallel computers".                         |
 |   C.-K. Skylaris, P. D. Haynes, A. A. Mostofi, M. C. Payne.   |
 |   J. Chem. Phys. 122 084119 (2005).                           |
 |                                                               |
 |          in all publications arising from your use of ONETEP. |
 |                                                               |
 +---------------------------------------------------------------+
 |                                                               |
 |   ONETEP is based on developments described in the following  |
 |   publications:                                               |
 |                                                               |
 |  "Nonorthogonal generalized Wannier function pseudopotential  |
 |   plane-wave method".                                         |
 |   C.-K. Skylaris, A. A. Mostofi, P. D. Haynes, O. Dieguez,    |
 |   M. C. Payne.                                                |
 |   Phys. Rev. B 66 035119 (2002).                              |
 |                                                               |
 |  "Preconditioned iterative minimization for linear-scaling    |
 |   electronic structure calculations".                         |
 |   A. A. Mostofi, P. D. Haynes, C.-K. Skylaris, M. C. Payne.   |
 |   J. Chem. Phys. 119(17), pp.8842-8848 (2003).                |
 |                                                               |
 |  "Total-energy calculations on a real space grid with         |
 |   localized functions and a plane-wave basis".                |
 |   A. A. Mostofi, C.-K. Skylaris, P. D. Haynes, M. C. Payne.   |
 |   Comput. Phys. Commun. 147, pp.788-802 (2002).               |
 |                                                               |
 |  "Accurate kinetic energy evaluation in electronic structure  |
 |   calculations with localized functions on real space grids"  |
 |   C.-K. Skylaris, A. A. Mostofi, P. D. Haynes, C. J. Pickard, |
 |   M. C. Payne.                                                |
 |   Comput. Phys. Commun. 140, pp.315-322 (2001).               |
 |                                                               |
 |  "Accurate ionic forces and geometry optimization in linear-  |
 |   scaling density-functional theory with local orbitals"      |
 |   N. D. M. Hine, M. Robinson, P. D. Haynes, C.-K. Skylaris,   |
 |   M. C. Payne, and A. A. Mostofi.                             |
 |   Phys. Rev. B 83 195102 (2011).                              |
 |                                                               |
 +---------------------------------------------------------------+

Job started: 17-10-2020 15:24 (+0100)
 
Reading parameters from file "46/592nano.dat" ...... done

If your calculation crashes here, before "Checking processes and threads..."
is displayed, then your stack size is insufficient.
If so, use "ulimit -s unlimited" at runtime.
You can disable this check with "check_stack_size F".

Checking processes and threads...
   Determining the default number of threads...
      No default threads set at compilation time: defaulting to 1.
      OpenMP library call suggests 4 threads.
      Hybrid MPI-OpenMP compilation detected.
      Number of MPI processes > 1.
      OMP_NUM_THREADS environment variable present and
      its value matches the one obtained from the OpenMP library call.
      Using this value as default.
      Default threads: 4
      Default applies to threads_max and threads_num_fftboxes.
      Settings in the input file override this default.
   ... done

   Running with 160 MPI processes.
   There are 10 MPI processes running on the same node as the root process.
   Each MPI process is using: 
               1 threads for simulation cell FFTs.
               1 threads for parallel FFT box operations.
               4 threads for loops over batched FFT box operations.
               4 threads in other parallel regions.
... done

Basic input checks...
Resetting ngwf_cg_rotate to TRUE for EDFT calculations
... done

Reading geometry and species blocks from file "46/592nano.dat" ...    
  Number of PPD points along a3 set to 1.  This is 
  the default value, it may have been provided also in the input file.
... done
 Writing xyz coordinates to file "46/592nano.xyz" ... done


--------------------------------------------------------------------------------
---------------------------------- INPUT FILE ----------------------------------
--------------------------------------------------------------------------------

task : singlepoint                                                              
do_properties : true                                                            
ddec_classical_hirshfeld T                                                      
dx_format T                                                                     
edft T                                                                          
edft_spin_fix 3                                                                 
output_detail VERBOSE                                                           
write_xyz T                                                                     
dispersion 4                                                                    
xc_functional PBE                                                               
cutoff_energy 830 eV                                                            
paw T                                                                           
geom_disp_tol 0.015 bohr                                                        
geom_energy_tol 1.5E-6 hartree                                                  
geom_force_tol 0.003 "ha/bohr"                                                  
EDFT_MAXIT 30                                                                   
pdos_max_l = 2                                                                  
dos_smear  0.1 eV                                                               
popn_calculate T                                                                
PDOS_PSEUDOATOMIC T                                                             
PDOS_REDUCE_SWS F                                                               
PDOS_CONSTRUCT_BASIS F                                                          
PDOS_LOWDIN T                                                                   
PDOS_ORTH_ATOM_BLOCKS F                                                         
PDOS_LCAO_OPTIMIZE F                                                            
pdos_optados_output T                                                           
homo_plot 0                                                                     
lumo_plot 0                                                                     
homo_dens_plot -1                                                               
lumo_dens_plot -1                                                               
%BLOCK SPECIES                                                                  
C C 6 4 9.0                                                                     
H H 1 1 9.0                                                                     
Li Li 3 5 9.0                                                                   
%ENDBLOCK SPECIES                                                               
%BLOCK SPECIES_POT                                                              
C "~/pp/paw/c_pbe_abinit.paw"                                                   
H "~/pp/paw/h_pbe_abinit.paw"                                                   
Li "~/pp/paw/li_pbe_abinit.paw"                                                 
%ENDBLOCK SPECIES_POT                                                           
%BLOCK SPECIES_ATOMIC_SET                                                       
C "SOLVE conf=2s2 2p2"                                                          
H "SOLVE conf=1s1"                                                              
Li "SOLVE conf=1s2 2s1 2p0"                                                     
%ENDBLOCK SPECIES_ATOMIC_SET                                                    
%BLOCK SPECIES_LDOS_GROUPS                                                      
C                                                                               
H                                                                               
Li                                                                              
%ENDBLOCK SPECIES_LDOS_GROUPS                                                   
%BLOCK LATTICE_CART                                                             
94.486315650000      0.000000000000       0.000000000000                        
0.000000000000       94.486315650000      0.000000000000                        
0.000000000000       0.000000000000       94.486315650000                       
%ENDBLOCK LATTICE_CART                                                          
%BLOCK POSITIONS_ABS                                                            
C 45.465895 50.710874 30.194061                                                 
C 45.453489 50.601561 36.257913                                                 
C 46.808955 53.057481 30.175955                                                 
C 48.162468 50.613048 36.280665                                                 
C 49.527211 48.388118 30.090037                                                 
C 49.522202 48.265030 36.216171                                                 
C 50.871555 50.733795 30.093219                                                 
C 52.226522 48.270127 36.179886                                                 
C 45.447686 55.390635 30.093462                                                 
C 45.449749 55.294320 36.314089                                                 
C 46.789488 57.729227 29.940594                                                 
C 48.158617 55.303878 36.399346                                                 
C 49.510377 53.065705 30.135886                                                 
C 49.507178 52.954837 36.379157                                                 
C 50.852771 55.409387 30.022850                                                 
C 52.208166 52.961905 36.464018                                                 
C 45.396796 50.489660 43.640090                                                 
C 45.389725 50.413520 49.631096                                                 
C 46.755838 52.844418 43.581051                                                 
C 48.094244 50.413031 49.646010                                                 
C 49.463508 48.138424 43.627102                                                 
C 49.442810 48.073339 49.710022                                                 
C 50.826106 50.503050 43.578647                                                 
C 52.141131 48.072784 49.855575                                                 
C 45.403426 55.188874 43.591538                                                 
C 45.388852 55.091705 49.722745                                                 
C 46.744374 57.531016 43.464141                                                 
C 48.090747 55.093286 49.715422                                                 
C 49.453862 52.851697 43.512065                                                 
C 49.442899 52.753792 49.685469                                                 
C 50.801103 55.181024 43.389710                                                 
C 52.140515 52.755493 49.801528                                                 
C 57.620464 48.428742 29.520318                                                 
C 57.605128 48.285069 36.481791                                                 
C 58.969164 50.777990 29.480150                                                 
C 60.309740 48.288634 36.496742                                                 
C 57.610487 48.160455 43.468208                                                 
C 57.492442 48.073947 50.449784                                                 
C 58.964115 50.512117 43.419291                                                 
C 60.199613 48.079646 50.816578                                                 
C 53.571035 50.746569 29.942811                                                 
C 53.567740 50.633473 36.380549                                                 
C 54.907482 53.092003 29.853795                                                 
C 56.272066 50.635396 36.509296                                                 
C 53.530473 50.507603 43.488410                                                 
C 53.485645 50.412687 49.917661                                                 
C 54.882947 52.850577 43.333592                                                 
C 56.173996 50.411686 50.212593                                                 
C 57.630211 43.763891 29.243328                                                 
C 57.653929 43.595383 36.468818                                                 
C 58.977266 46.087426 29.272029                                                 
C 60.388511 43.596554 36.562046                                                 
C 57.601977 43.478637 43.366883                                                 
C 57.515121 43.397941 50.609048                                                 
C 58.960951 45.811991 43.476001                                                 
C 60.212451 43.397482 50.939723                                                 
C 53.581373 46.076953 29.747279                                                 
C 53.588110 45.908190 36.302232                                                 
C 54.924999 48.415325 29.769703                                                 
C 56.286092 45.924417 36.418131                                                 
C 53.547036 45.808915 43.466999                                                 
C 53.483913 45.730980 50.042038                                                 
C 54.909861 48.154659 43.477311                                                 
C 56.168735 45.741743 50.343787                                                 
C 57.582765 57.778690 29.473080                                                 
C 57.605633 57.648150 36.749906                                                 
C 58.914841 60.141180 29.235279                                                 
C 60.337771 57.649201 36.766582                                                 
C 57.569423 57.513108 43.094302                                                 
C 57.535541 57.431214 50.289160                                                 
C 58.946266 59.854802 43.022655                                                 
C 60.256957 57.418420 50.525816                                                 
C 45.424505 64.712780 29.145565                                                 
C 45.421777 64.657343 36.243085                                                 
C 46.784231 67.055285 28.852905                                                 
C 48.146273 64.670441 36.230375                                                 
C 49.465971 62.381049 29.359876                                                 
C 49.503802 62.329887 36.367015                                                 
C 50.836324 64.746090 29.037103                                                 
C 52.228033 62.323932 36.497382                                                 
C 45.393957 64.576904 43.312814                                                 
C 45.399565 64.423630 50.456114                                                 
C 46.762219 66.962345 43.280663                                                 
C 48.089516 64.426322 50.479110                                                 
C 49.440966 62.198602 43.397177                                                 
C 49.437285 62.094034 50.262567                                                 
C 50.784198 64.556552 43.553549                                                 
C 52.120656 62.102709 50.380975                                                 
C 53.531530 60.078424 29.595040                                                 
C 53.564804 59.976326 36.598109                                                 
C 54.883204 62.448128 29.382525                                                 
C 56.261565 59.985850 36.682179                                                 
C 53.485288 59.831454 43.246430                                                 
C 53.476309 59.770976 50.182340                                                 
C 54.848717 62.171813 43.263620                                                 
C 56.196246 59.770203 50.290800                                                 
C 57.606684 53.105688 29.614653                                                 
C 57.595100 52.973578 36.680027                                                 
C 58.947278 55.465003 29.439715                                                 
C 60.324087 53.000499 36.755947                                                 
C 57.589880 52.846848 43.256645                                                 
C 57.508447 52.756216 50.340909                                                 
C 58.935383 55.194751 43.118018                                                 
C 60.224688 52.769456 50.710870                                                 
C 45.430534 60.056661 29.726044                                                 
C 45.448751 59.984347 36.350361                                                 
C 46.779043 62.384212 29.427782                                                 
C 48.139002 59.973776 36.399921                                                 
C 49.490914 57.736669 29.909368                                                 
C 49.494067 57.642630 36.466439                                                 
C 50.833730 60.071520 29.651352                                                 
C 52.212396 57.646515 36.573486                                                 
C 45.378979 59.888944 43.428593                                                 
C 45.393781 59.759675 50.009793                                                 
C 46.733468 62.230265 43.365351                                                 
C 48.089985 59.765243 50.003955                                                 
C 49.443779 57.516756 43.369778                                                 
C 49.438644 57.430929 49.850308                                                 
C 50.795521 59.863643 43.320587                                                 
C 52.137809 57.433059 49.934791                                                 
C 53.549647 55.418269 29.894358                                                 
C 53.553023 55.315912 36.599586                                                 
C 54.882142 57.766864 29.692433                                                 
C 56.249496 55.311666 36.697123                                                 
C 53.523252 55.174057 43.301719                                                 
C 53.486926 55.097744 49.912095                                                 
C 54.862753 57.502940 43.210484                                                 
C 56.179973 55.092299 50.140399                                                 
H 27.312852 41.305574 28.605603                                                 
H 28.247643 39.369803 36.017878                                                 
H 27.112084 41.102046 43.608623                                                 
H 28.196151 39.308828 50.692340                                                 
H 41.855042 30.236951 28.935250                                                 
C 42.877321 32.030306 29.034573                                                 
H 44.474635 30.119608 36.664015                                                 
H 41.792923 29.923557 43.435324                                                 
C 42.798803 31.726260 43.355030                                                 
H 44.359080 29.973849 50.824467                                                 
H 29.643582 37.218315 28.868187                                                 
C 30.673445 39.008481 28.914810                                                 
H 32.355501 37.042751 36.310550                                                 
H 33.714107 34.852190 29.059774                                                 
C 34.741438 36.642067 29.148629                                                 
H 29.467976 36.984882 43.714510                                                 
C 30.506311 38.760697 43.542014                                                 
H 32.259174 36.966227 50.729349                                                 
H 33.535622 34.607944 43.675767                                                 
C 34.572320 36.388947 43.533182                                                 
H 37.780955 32.544684 28.895929                                                 
C 38.798764 34.339182 29.036439                                                 
H 40.416908 32.448705 36.290059                                                 
H 37.639110 32.250813 43.833081                                                 
C 38.654884 34.041091 43.677592                                                 
H 40.302071 32.328466 50.823431                                                 
H 46.560197 30.273253 29.044296                                                 
H 46.482815 29.981509 42.934651                                                 
H 25.783214 48.193010 35.858369                                                 
C 27.842231 48.203108 36.014401                                                 
H 25.820130 48.054754 51.024869                                                 
C 27.881179 48.062706 50.860884                                                 
H 25.855650 43.456921 35.826327                                                 
H 27.305417 45.998002 28.617098                                                 
C 27.915619 43.478890 35.974585                                                 
H 25.830440 43.376841 50.851950                                                 
H 27.120972 45.832419 43.461377                                                 
C 27.895204 43.377322 50.773453                                                 
H 25.807364 57.668864 36.164626                                                 
H 27.213833 59.948814 28.656021                                                 
C 27.871607 57.651140 36.249773                                                 
H 25.841410 57.414996 51.205805                                                 
H 27.111616 59.828389 43.587200                                                 
C 27.904897 57.416833 51.094613                                                 
H 25.768772 52.937061 35.886808                                                 
H 27.253871 55.256568 28.679066                                                 
C 27.827461 52.925703 36.041973                                                 
H 25.814122 52.731249 51.070493                                                 
H 27.120829 55.118090 43.486573                                                 
C 27.874888 52.728717 50.918666                                                 
C 29.374204 41.295552 28.741883                                                 
C 29.257476 41.170383 36.107868                                                 
C 30.658457 43.654874 28.845083                                                 
C 31.947239 41.137726 36.235473                                                 
C 33.363271 38.930259 29.095931                                                 
C 33.365252 38.848162 36.343826                                                 
C 34.710679 41.314467 29.254158                                                 
C 36.031579 38.847333 36.576955                                                 
C 29.366915 45.995519 28.778761                                                 
C 29.152826 45.811166 36.059407                                                 
C 30.660343 48.306290 28.799563                                                 
C 31.926873 45.843177 36.213886                                                 
C 33.374044 43.647477 29.144841                                                 
C 33.302699 43.510847 36.297798                                                 
C 34.717561 45.992691 29.353025                                                 
C 36.000211 43.532060 36.407098                                                 
C 29.175672 41.091127 43.517235                                                 
C 29.215656 41.106378 50.690160                                                 
C 30.462696 43.434593 43.275868                                                 
C 31.901618 41.049253 50.598837                                                 
C 33.170899 38.684815 43.385124                                                 
C 33.284353 38.759882 50.633092                                                 
C 34.558478 41.082942 43.258393                                                 
C 35.935593 38.734374 50.707316                                                 
C 29.188357 45.809402 43.402071                                                 
C 29.176372 45.752700 50.752644                                                 
C 30.515575 48.118161 43.517572                                                 
C 31.902798 45.741938 50.529629                                                 
C 33.214667 43.441575 43.273847                                                 
C 33.248080 43.415662 50.471029                                                 
C 34.569825 45.772961 43.320329                                                 
C 35.954470 43.417441 50.283955                                                 
C 41.458980 39.010818 29.475781                                                 
C 41.440209 38.900063 36.445659                                                 
C 42.792931 41.350278 29.723402                                                 
C 44.134818 38.893184 36.524126                                                 
C 41.355642 38.738581 43.370316                                                 
C 41.362029 38.760286 50.461308                                                 
C 42.700659 41.086590 43.354331                                                 
C 44.043370 38.740200 50.291050                                                 
C 37.422672 41.320834 29.460871                                                 
C 37.376206 41.214825 36.492542                                                 
C 38.748791 43.665598 29.717414                                                 
C 40.074295 41.215338 36.469364                                                 
C 37.261287 41.082294 43.284856                                                 
C 37.303462 41.099954 50.424892                                                 
C 38.622256 43.434502 43.332598                                                 
C 39.998317 41.081056 50.258518                                                 
C 41.450243 34.318436 29.096616                                                 
C 41.453786 34.237950 36.384866                                                 
C 42.812995 36.678342 29.299257                                                 
C 44.132522 34.189428 36.675283                                                 
C 41.381205 33.986428 43.510468                                                 
C 41.342371 34.111392 50.691140                                                 
C 42.739623 36.392495 43.362318                                                 
C 44.021265 34.054487 50.719816                                                 
C 37.422128 36.600226 29.118927                                                 
C 37.417818 36.565408 36.421996                                                 
C 38.780590 38.988246 29.336903                                                 
C 40.097787 36.533893 36.275623                                                 
C 37.235037 36.334356 43.522996                                                 
C 37.323413 36.446801 50.593685                                                 
C 38.621767 38.734114 43.399400                                                 
C 39.990050 36.398032 50.754707                                                 
C 41.424250 48.354904 30.064054                                                 
C 41.379254 48.237222 36.291293                                                 
C 42.762840 50.700545 30.143993                                                 
C 44.096736 48.244683 36.171725                                                 
C 41.318581 48.126819 43.553065                                                 
C 41.338509 48.076498 49.738178                                                 
C 42.682109 50.484473 43.619269                                                 
C 44.040029 48.074067 49.665339                                                 
C 29.313689 55.281475 28.862365                                                 
C 29.129270 55.316411 36.190043                                                 
C 30.580471 57.636135 28.937492                                                 
C 31.895224 55.302827 36.308966                                                 
C 33.358876 53.002230 29.204029                                                 
C 33.245716 52.936874 36.313865                                                 
C 34.666610 55.340244 29.412809                                                 
C 35.955202 52.929895 36.363263                                                 
C 29.188598 55.139498 43.486015                                                 
C 29.179578 55.057837 50.947119                                                 
C 30.472476 57.503221 43.505048                                                 
C 31.901799 55.073259 50.709790                                                 
C 33.245207 52.816045 43.472570                                                 
C 33.251515 52.728603 50.461985                                                 
C 34.577715 55.172325 43.534348                                                 
C 35.943098 52.739878 50.159147                                                 
C 37.377438 50.676827 29.760529                                                 
C 37.314739 50.569361 36.356304                                                 
C 38.709842 53.025500 29.884442                                                 
C 40.004345 50.577899 36.323729                                                 
C 37.285553 50.476702 43.475143                                                 
C 37.287470 50.411704 49.975639                                                 
C 38.624536 52.822069 43.553228                                                 
C 39.987192 50.413070 49.788112                                                 
C 41.440946 43.677952 29.869138                                                 
C 41.413765 43.561864 36.418968                                                 
C 42.781308 46.021424 30.042310                                                 
C 44.112804 43.564245 36.394416                                                 
C 41.329737 43.428955 43.399987                                                 
C 41.343053 43.408138 49.961873                                                 
C 42.676273 45.763324 43.521252                                                 
C 44.043382 43.401199 49.865816                                                 
C 29.355782 50.638097 28.954859                                                 
C 29.108695 50.566353 36.095305                                                 
C 30.634878 52.984058 28.844946                                                 
C 31.886294 50.572956 36.250496                                                 
C 33.385614 48.317838 29.162905                                                 
C 33.255622 48.197992 36.277751                                                 
C 34.695985 50.664250 29.401969                                                 
C 35.976003 48.217139 36.350726                                                 
C 29.218039 50.464238 43.342214                                                 
C 29.164041 50.381311 50.818904                                                 
C 30.520977 52.818600 43.449971                                                 
C 31.902681 50.392243 50.549057                                                 
C 33.241040 48.129039 43.402191                                                 
C 33.250835 48.076803 50.360912                                                 
C 34.579091 50.466876 43.432912                                                 
C 35.940182 48.078191 50.091875                                                 
C 37.396222 45.996661 29.691799                                                 
C 37.329326 45.892417 36.388156                                                 
C 38.729252 48.342999 29.875177                                                 
C 40.043486 45.894823 36.379779                                                 
C 37.278529 45.768748 43.355241                                                 
C 37.292074 45.747092 50.046668                                                 
C 38.623169 48.124286 43.455818                                                 
C 39.990376 45.741597 49.878544                                                 
C 45.504782 32.049626 29.091667                                                 
C 45.520620 31.903151 36.667510                                                 
C 46.886989 34.353243 29.188886                                                 
C 48.147451 31.898633 36.679157                                                 
H 49.182942 30.110080 36.651007                                                 
H 50.608066 32.636674 29.018694                                                 
C 45.497863 36.695518 29.315058                                                 
C 45.482483 36.550914 36.637891                                                 
C 46.831932 39.049156 29.458074                                                 
C 48.171287 36.542562 36.675515                                                 
C 49.562618 34.415841 29.150678                                                 
C 49.534227 34.173059 36.666446                                                 
C 50.901763 36.707776 29.106709                                                 
C 52.217587 34.210780 36.412506                                                 
C 45.439723 31.758071 43.062567                                                 
C 45.406161 31.752517 50.699027                                                 
C 46.810940 34.057709 43.021226                                                 
C 48.027379 31.732697 50.535179                                                 
H 49.052323 29.937659 50.541891                                                 
H 50.540882 32.362806 42.870041                                                 
C 45.439531 36.416865 43.180475                                                 
C 45.391109 36.394071 50.452661                                                 
C 46.763001 38.767642 43.197219                                                 
C 48.076194 36.374033 50.364458                                                 
C 49.489817 34.140594 42.968756                                                 
C 49.441798 34.007225 50.459198                                                 
C 50.815222 36.429419 42.966602                                                 
C 52.121730 34.039555 50.382962                                                 
H 53.225487 32.410990 36.275846                                                 
H 53.145515 32.246415 50.457469                                                 
C 57.608666 39.112162 29.143296                                                 
C 57.706671 38.867293 36.246905                                                 
C 58.983135 41.415653 28.995173                                                 
C 60.371158 38.952413 36.393714                                                 
C 57.560205 38.817325 43.323489                                                 
C 57.541411 38.694120 50.724796                                                 
C 58.970135 41.113041 43.333284                                                 
C 60.213324 38.771996 50.899300                                                 
C 45.480965 46.033281 30.074127                                                 
C 45.460278 45.903132 36.281727                                                 
C 46.825705 48.377548 30.154048                                                 
C 48.176800 45.900906 36.280287                                                 
C 49.533533 43.720285 29.818083                                                 
C 49.524362 43.574005 36.362873                                                 
C 50.882158 46.060305 29.918615                                                 
C 52.239695 43.570799 36.352023                                                 
C 45.401026 45.776223 43.562624                                                 
C 45.391389 45.734967 49.717342                                                 
C 46.749306 48.134718 43.630547                                                 
C 48.093374 45.732654 49.735710                                                 
C 49.453570 43.450667 43.415284                                                 
C 49.441238 43.394238 49.878630                                                 
C 50.814217 45.796612 43.531864                                                 
C 52.137819 43.395955 50.030313                                                 
C 53.575897 41.427843 29.326368                                                 
C 53.593737 41.232508 36.387154                                                 
C 54.925977 43.750915 29.458741                                                 
C 56.318256 41.245868 36.376197                                                 
C 53.516245 41.154707 43.267941                                                 
C 53.482519 41.057543 50.266966                                                 
C 54.891345 43.478518 43.355216                                                 
C 56.186447 41.062482 50.542571                                                 
H 57.321452 34.769945 35.699234                                                 
H 58.644478 37.324955 29.019875                                                 
H 57.221547 34.607816 50.674021                                                 
H 58.572330 37.011424 43.459096                                                 
C 45.485962 41.367387 29.723415                                                 
C 45.481521 41.226153 36.483263                                                 
C 46.835095 43.704583 29.906783                                                 
C 48.175742 41.227407 36.477117                                                 
C 49.521246 39.065787 29.364870                                                 
C 49.525211 38.887329 36.555588                                                 
C 50.881778 41.395677 29.525918                                                 
C 52.234135 38.874679 36.429693                                                 
C 45.393630 41.097122 43.331777                                                 
C 45.395025 41.064887 50.011857                                                 
C 46.756018 43.439880 43.432790                                                 
C 48.089083 41.059081 49.990472                                                 
C 49.461550 38.794900 43.121538                                                 
C 49.435390 38.717963 50.182758                                                 
C 50.812391 41.121746 43.266956                                                 
C 52.137862 38.711188 50.278986                                                 
C 53.578794 36.774833 29.200733                                                 
C 53.595561 36.475802 36.287999                                                 
C 54.947813 39.065167 29.053107                                                 
C 56.298089 36.541118 35.986199                                                 
C 53.496203 36.497111 43.287868                                                 
C 53.509495 36.323400 50.452004                                                 
C 54.871823 38.814534 43.246935                                                 
C 56.180589 36.389331 50.573452                                                 
H 61.425142 37.175864 36.332413                                                 
H 62.692479 39.686043 28.865980                                                 
H 61.248838 36.984727 50.977019                                                 
H 62.663757 39.369994 43.433908                                                 
H 28.184296 61.729976 36.503153                                                 
H 28.211955 61.469475 51.287945                                                 
C 29.274449 59.976764 28.803369                                                 
C 29.206654 59.934625 36.424808                                                 
C 30.566097 62.281922 28.895019                                                 
C 31.871853 59.983152 36.502926                                                 
C 33.299008 57.671420 29.227627                                                 
C 33.251455 57.628281 36.405641                                                 
C 34.622245 60.019104 29.286174                                                 
C 35.949564 57.606311 36.403224                                                 
H 29.520570 64.059671 28.773834                                                 
H 32.266876 64.092714 36.425742                                                 
C 33.248749 62.386331 29.043043                                                 
C 33.275329 62.287064 36.347465                                                 
C 34.621728 64.694835 29.030187                                                 
C 35.959967 62.296948 36.387551                                                 
C 29.174825 59.835873 43.571600                                                 
C 29.228281 59.673042 51.142147                                                 
C 30.488063 62.145725 43.648897                                                 
C 31.906710 59.730927 51.032750                                                 
C 33.210026 57.504688 43.550199                                                 
C 33.252416 57.394628 50.720482                                                 
C 34.549499 59.850499 43.629523                                                 
C 35.955523 57.403383 50.434451                                                 
H 29.441090 63.927312 43.679496                                                 
H 32.277225 63.817246 51.271336                                                 
C 33.153141 62.235403 43.627465                                                 
C 33.285275 62.046401 50.876276                                                 
C 34.552631 64.573286 43.465769                                                 
C 35.957247 62.070596 50.828545                                                 
C 41.388750 57.713429 29.871986                                                 
C 41.368587 57.620316 36.331823                                                 
C 42.735631 60.048504 29.709161                                                 
C 44.091215 57.636838 36.319630                                                 
C 41.332754 57.539658 43.606941                                                 
C 41.339192 57.418642 49.996236                                                 
C 42.691240 59.891477 43.481528                                                 
C 44.040573 57.424186 49.874203                                                 
C 37.333375 60.035618 29.499843                                                 
C 37.324439 59.941381 36.425171                                                 
C 38.681965 62.382247 29.370907                                                 
C 40.023421 59.966892 36.403023                                                 
C 37.266705 59.868916 43.628034                                                 
C 37.309379 59.719271 50.506829                                                 
C 38.623634 62.231945 43.572096                                                 
C 39.994528 59.744173 50.285796                                                 
C 41.403255 53.035723 30.067881                                                 
C 41.364996 52.929710 36.290792                                                 
C 42.744312 55.382748 30.047031                                                 
C 44.090069 52.934259 36.283217                                                 
C 41.321432 52.832791 43.626783                                                 
C 41.336685 52.749785 49.763686                                                 
C 42.677570 55.194260 43.718266                                                 
C 44.037442 52.751771 49.674758                                                 
C 37.354456 55.361981 29.719592                                                 
C 37.286353 55.257721 36.375240                                                 
C 38.686449 57.703523 29.740256                                                 
C 40.011759 55.270214 36.321414                                                 
C 37.272961 55.186249 43.569988                                                 
C 37.290176 55.075742 50.141824                                                 
C 38.612159 57.526338 43.597545                                                 
C 39.986212 55.084147 49.931942                                                 
C 41.367296 67.076286 29.015931                                                 
C 41.358245 66.952968 36.447755                                                 
C 42.765485 69.359490 28.930427                                                 
C 44.044046 67.032558 36.184916                                                 
C 41.309841 66.992891 43.405936                                                 
C 41.354644 66.714970 50.743699                                                 
C 42.692627 69.278518 43.506463                                                 
C 44.030300 66.773323 50.655222                                                 
H 37.663078 68.829872 28.948673                                                 
H 40.299746 68.731416 36.526312                                                 
H 37.580826 68.699787 43.555994                                                 
H 40.320692 68.497719 50.921104                                                 
C 41.382947 62.380223 29.436482                                                 
C 41.380941 62.291333 36.420419                                                 
C 42.739606 64.720937 29.182040                                                 
C 44.083804 62.323352 36.336394                                                 
C 41.335743 62.245883 43.421098                                                 
C 41.359747 62.073421 50.428172                                                 
C 42.688318 64.590606 43.323477                                                 
C 44.044654 62.084607 50.262157                                                 
H 33.585563 66.471534 28.837961                                                 
H 33.517976 66.352255 43.270620                                                 
C 37.299698 64.759597 29.106031                                                 
C 37.344263 64.601375 36.374383                                                 
C 38.686893 67.039679 29.077845                                                 
C 40.021196 64.645491 36.555525                                                 
C 37.254341 64.628152 43.536354                                                 
C 37.323700 64.375409 50.773067                                                 
C 38.623269 66.912641 43.536827                                                 
C 40.012982 64.431972 50.782666                                                 
C 61.667300 41.479930 28.967604                                                 
C 61.679784 41.265802 36.585476                                                 
C 62.985063 43.750060 29.031787                                                 
H 63.743404 41.270815 36.672405                                                 
C 61.709980 46.103578 29.108670                                                 
C 61.663175 45.974132 36.500858                                                 
C 63.012979 48.447088 29.195030                                                 
H 63.734009 46.009089 36.391911                                                 
H 65.051902 43.751719 28.985158                                                 
C 61.634350 41.158543 43.425863                                                 
C 61.503000 41.052197 51.007673                                                 
C 62.970140 43.451405 43.567180                                                 
H 63.565040 41.071000 51.173274                                                 
C 61.709124 45.798787 43.584312                                                 
C 61.519995 45.754535 50.855045                                                 
C 63.052815 48.183810 43.653486                                                 
H 63.556375 45.765080 51.257268                                                 
H 65.035358 43.435018 43.654177                                                 
C 61.668104 55.470956 29.249519                                                 
C 61.625788 55.301641 36.738103                                                 
C 62.933860 57.839041 29.186958                                                 
H 63.695886 55.297341 36.768104                                                 
H 65.054454 53.164573 29.150696                                                 
C 61.675871 55.215434 43.155757                                                 
C 61.537387 55.067339 50.651051                                                 
C 62.950578 57.548400 43.089603                                                 
H 63.594744 55.061379 50.855595                                                 
H 65.052300 52.905341 43.513176                                                 
C 61.720932 50.788996 29.268294                                                 
C 61.616148 50.653412 36.389225                                                 
C 62.991618 53.141979 29.265462                                                 
H 65.076694 48.448617 29.100082                                                 
C 61.709726 50.551232 43.534981                                                 
C 61.510671 50.412400 50.777816                                                 
C 62.985668 52.877157 43.419905                                                 
H 65.122840 48.193395 43.632937                                                 
H 41.730766 71.148238 28.895294                                                 
H 44.368070 71.126369 36.228773                                                 
H 41.663651 71.070708 43.528604                                                 
H 44.375472 70.848986 50.842296                                                 
C 45.384214 69.353663 28.844232                                                 
C 45.418878 69.343881 36.213936                                                 
H 46.425394 71.137991 28.757404                                                 
C 48.115524 69.355754 36.181124                                                 
C 49.453688 67.027878 29.005721                                                 
C 49.504528 67.090614 36.169498                                                 
H 50.481437 68.817397 28.869869                                                 
C 52.215049 67.011848 36.208285                                                 
H 49.143024 71.146368 36.199957                                                 
C 45.387735 69.264845 43.478832                                                 
C 45.419824 69.067771 50.777820                                                 
H 46.435826 71.044818 43.430647                                                 
C 48.053170 69.071851 50.824924                                                 
C 49.454262 66.868838 43.457241                                                 
C 49.462562 66.776407 50.735030                                                 
H 50.517062 68.644690 43.490452                                                 
C 52.117176 66.739865 50.804880                                                 
H 49.086195 70.857202 50.935250                                                 
H 57.314564 66.456595 36.148813                                                 
H 57.200978 66.218428 50.768598                                                 
H 53.249669 68.795224 36.090164                                                 
H 53.139251 68.527885 50.988828                                                 
C 57.537778 62.424624 29.348455                                                 
C 57.646401 62.354634 36.570307                                                 
H 58.558977 64.216989 29.198233                                                 
C 60.316940 62.281831 36.690343                                                 
C 57.537770 62.143937 43.413431                                                 
C 57.553260 62.145580 50.514905                                                 
H 58.581040 63.941023 43.521860                                                 
C 60.244913 62.062901 50.589263                                                 
C 53.495405 64.716640 29.176166                                                 
C 53.609184 64.719350 36.368321                                                 
C 56.272744 64.675511 36.314856                                                 
C 53.474817 64.491952 43.358718                                                 
C 53.487664 64.479217 50.660127                                                 
C 56.171392 64.433990 50.612307                                                 
C 61.609384 60.089796 29.184630                                                 
C 61.631848 59.987951 36.757923                                                 
H 62.621191 61.890737 29.098865                                                 
H 63.698675 59.974421 36.784284                                                 
H 64.999564 57.849900 29.108342                                                 
H 61.355913 64.070767 36.625914                                                 
C 61.608653 59.817588 43.012025                                                 
C 61.548621 59.768053 50.636760                                                 
H 62.622471 61.619406 42.948147                                                 
H 63.609779 59.754212 50.765973                                                 
H 65.018604 57.560106 43.124023                                                 
H 61.278512 63.846831 50.713126                                                 
H 63.547718 50.417200 51.178075                                                 
H 36.293509 34.656272 50.711673                                                 
H 36.307981 66.137901 51.186415                                                 
H 27.148226 50.470067 43.397570                                                 
H 54.519165 66.282786 43.513595                                                 
H 63.691538 50.651588 36.314325                                                 
H 54.541926 34.704270 43.359851                                                 
H 36.390906 34.768294 36.351179                                                 
H 36.303784 66.389413 36.454332                                                 
H 54.518549 66.505666 29.008626                                                 
H 27.294399 50.628608 28.775850                                                 
H 54.618161 34.990554 29.075577                                                 
Li 58.994719 60.069631 33.181440                                                
Li 30.293328 43.452678 47.181391                                                
Li 44.059161 34.107745 32.680736                                                
Li 46.851891 67.097326 47.192156                                                
Li 60.252907 43.167811 46.979405                                                
Li 31.290519 59.945649 32.522773                                                
Li 51.266720 64.363236 32.877375                                                
Li 40.246052 65.143137 32.661355                                                
Li 60.207921 53.250377 46.794315                                                
Li 30.109537 52.828667 47.302139                                                
Li 35.593541 38.931886 46.855578                                                
Li 55.328682 38.619352 47.071152                                                
Li 36.112877 38.572730 32.693275                                                
Li 50.438097 36.278036 33.013705                                                
Li 40.024202 36.401402 46.913695                                                
Li 50.685836 36.024312 46.868927                                                
Li 54.804333 62.594509 47.073523                                                
Li 40.298287 64.720927 46.916691                                                
Li 30.568294 53.255265 32.702358                                                
Li 30.581454 48.018987 32.659672                                                
Li 31.602504 59.702720 47.104569                                                
Li 60.656575 53.395759 32.855649                                                
Li 54.806136 38.942657 32.877744                                                
Li 60.684072 48.099318 32.703145                                                
Li 46.599393 67.356515 32.724764                                                
Li 59.391209 59.795699 46.966866                                                
Li 31.441399 41.424603 32.390484                                                
Li 44.687382 33.692970 46.758506                                                
Li 59.489793 41.422829 32.926434                                                
Li 35.859026 62.239848 40.164436                                                
Li 30.312594 47.911828 39.622911                                                
Li 34.919776 63.955578 47.375788                                                
Li 50.688840 64.858919 39.717854                                                
Li 39.747307 35.923270 40.080446                                                
Li 62.082361 48.451925 39.926928                                                
Li 62.357983 48.135263 47.429319                                                
Li 55.913909 37.115684 39.855822                                                
Li 30.239324 53.169259 39.640891                                                
Li 44.099523 48.159632 40.117437                                                
Li 42.710083 55.332531 39.782640                                                
Li 35.656856 62.761077 32.603157                                                
Li 31.451087 40.780691 39.995915                                                
Li 51.927433 48.254662 40.088613                                                
Li 56.322424 64.244783 40.150288                                                
Li 43.901420 67.893318 39.945135                                                
Li 29.745240 59.990400 39.993600                                                
%ENDBLOCK POSITIONS_ABS                                                         

--------------------------------------------------------------------------------
-------------------------------- END INPUT FILE --------------------------------
--------------------------------------------------------------------------------


 
<<<<<<<<<<<<<<<<<<<<<<<<<<<<<<<<< Full system >>>>>>>>>>>>>>>>>>>>>>>>>>>>>>>>>>
<<<<<<<<<<<<<<<<<<<<<<<<<<< PAW Dataset information >>>>>>>>>>>>>>>>>>>>>>>>>>>
File: ~/pp/paw/c_pbe_abinit.paw; rc = 1.25 bohr; shape type =  3; rshape = 1.25 bohr;
  Atomic number:  6;  ionic charge:  4.000000
    Partial Wave 1: l = 0
    Partial Wave 2: l = 0
    Partial Wave 3: l = 1
    Partial Wave 4: l = 1
  Core charge supplied for Nonlinear Core Corrections
File: ~/pp/paw/h_pbe_abinit.paw; rc = 0.90 bohr; shape type =  3; rshape = 0.90 bohr;
  Atomic number:  1;  ionic charge:  1.000000
    Partial Wave 1: l = 0
    Partial Wave 2: l = 0
File: ~/pp/paw/li_pbe_abinit.paw; rc = 1.42 bohr; shape type =  3; rshape = 1.42 bohr;
  Atomic number:  3;  ionic charge:  3.000000
    Partial Wave 1: l = 0
    Partial Wave 2: l = 0
    Partial Wave 3: l = 0
    Partial Wave 4: l = 1
    Partial Wave 5: l = 1
<<<<<<<<<<<<<<<<<<<<<<<<<<<<<<<<<<<<<<< >>>>>>>>>>>>>>>>>>>>>>>>>>>>>>>>>>>>>>>

-------------------------- Atom counting information ---------------------------
Symbol    Natoms    Nngwfs    Nprojs
  C        484      1936      3872
  H        108       108       216
  Li        46       230       414
.......   ......    ......    ......
Totals:    638      2274      4502
--------------------------------------------------------------------------------

=============================== PSINC grid sizes ===============================
                      Simulation cell:  189 x 189 x 189
                              FFT-box:  117 x 117 x 117
                                  PPD:    7 x   7 x   1
Grid space d1=  0.499927596032a0 (KE cutoff=  30.39413Eh = 827.06648eV)
Grid space d2=  0.499927596032a0 (KE cutoff=  30.39413Eh = 827.06648eV)
Grid space d3=  0.499927596032a0 (KE cutoff=  30.39413Eh = 827.06648eV)
================================================================================
  
WARNING in cell_grid_distribute:
Average of less than one 23-slab per node, so workload cannot be
equally balanced between nodes.

********************* Fourier parallelisation information **********************
       Coarse grid (whole simulation cell) dimensions:    189   189   189
          Real-space ('12') slabs/node (min max mean):      1     2     1
         Recip-space ('23') slabs/node (min max mean):      0     1     0
********************************************************************************

********************* Fourier parallelisation information **********************
       Double grid (whole simulation cell) dimensions:    378   378   378
          Real-space ('12') slabs/node (min max mean):      2     3     2
         Recip-space ('23') slabs/node (min max mean):      1     2     1
********************************************************************************

Atom SCF Calculation for C  : Z (AE atom) =   6 : Z (PS atom) =   4
Config String: 2s2 2p2
Orbitals (num,occ):  2     2.00 2.00
Orbitals   (num,l):  2        0    1
Real-space Grid (nr,dr,rmax): 1377    0.0065406977    9.0000000000
Spherical Bessel Basis (nsws,lmax,cutoff):   37    2  183.0099912382
Confining potential (l,width,scale):  0    3.0000000000  100.0000000000
Confining potential (l,width,scale):  1    3.0000000000  100.0000000000
  1         -5.4350126632   -1.2715272878    4.5135247139   -1.5681949477
  2         -5.3876836850   -1.3562195125    4.4235426751   -1.5380057521
  3         -5.3928844498   -1.3758175853    4.4021699684   -1.5318377811
  4         -5.3988962903   -1.3800385428    4.3975423583   -1.5307324410
  5         -5.4018428823   -1.3823489590    4.3950111904   -1.5301555648
  6         -5.4033571720   -1.3835805046    4.3936635548   -1.5298576834
  7         -5.4041480647   -1.3842324820    4.3929512000   -1.5297032953
  8         -5.4045641108   -1.3845769138    4.3925755232   -1.5296229456
  9         -5.4047838258   -1.3847587737    4.3923775340   -1.5295810042
 10         -5.4049001347   -1.3848548089    4.3922731819   -1.5295590658
 11         -5.4049618018   -1.3849055476    4.3922181562   -1.5295475724
 12         -5.4049945351   -1.3849323732    4.3921891206   -1.5295415432
 13         -5.4050119258   -1.3849465673    4.3921737867   -1.5295383767
 14         -5.4050211723   -1.3849540841    4.3921656816   -1.5295367119
 15         -5.4050260920   -1.3849580684    4.3921613935   -1.5295358358
 16         -5.4050287113   -1.3849601822    4.3921591228   -1.5295353742
 17         -5.4050301068   -1.3849613045    4.3921579192   -1.5295351307
 18         -5.4050308507   -1.3849619010    4.3921572806   -1.5295350022
 19         -5.4050312476   -1.3849622183    4.3921569415   -1.5295349343
 20         -5.4050314594   -1.3849623873    4.3921567612   -1.5295348984
 21         -5.4050315725   -1.3849624773    4.3921566653   -1.5295348794
 22         -5.4050316330   -1.3849625253    4.3921566143   -1.5295348693
Atom SCF converged after  22 iterations to a total energy of     -5.40503163

Atom SCF Calculation for H  : Z (AE atom) =   1 : Z (PS atom) =   1
Config String: 1s1
Orbitals (num,occ):  1     1.00
Orbitals   (num,l):  1        0
Real-space Grid (nr,dr,rmax): 1377    0.0065406977    9.0000000000
Spherical Bessel Basis (nsws,lmax,cutoff):   37    1  183.0099912382
Confining potential (l,width,scale):  0    3.0000000000  100.0000000000
  1         -0.3605254152   -0.2399954029    0.2820952946   -0.2424203210
  2         -0.4156854077   -0.2398249290    0.2871789324   -0.2464796203
  3         -0.4412552402   -0.2379720642    0.2899127187   -0.2499011370
  4         -0.4517265951   -0.2371980236    0.2908966173   -0.2514141636
  5         -0.4557775773   -0.2369735141    0.2911607883   -0.2519713623
  6         -0.4573363459   -0.2369240355    0.2912108681   -0.2521663171
  7         -0.4579443228   -0.2369187864    0.2912112833   -0.2522344454
  8         -0.4581858602   -0.2369215483    0.2912049187   -0.2522587615
  9         -0.4582834939   -0.2369242589    0.2912002081   -0.2522677042
 10         -0.4583235236   -0.2369258837    0.2911975892   -0.2522710965
 11         -0.4583401154   -0.2369267223    0.2911962825   -0.2522724192
 12         -0.4583470483   -0.2369271266    0.2911956643   -0.2522729467
 13         -0.4583499624   -0.2369273145    0.2911953803   -0.2522731607
 14         -0.4583511926   -0.2369274000    0.2911952521   -0.2522732486
 15         -0.4583517136   -0.2369274385    0.2911951948   -0.2522732850
 16         -0.4583519349   -0.2369274556    0.2911951693   -0.2522733002
 17         -0.4583520290   -0.2369274632    0.2911951581   -0.2522733066
Atom SCF converged after  17 iterations to a total energy of     -0.45835203

Atom SCF Calculation for Li : Z (AE atom) =   3 : Z (PS atom) =   3
Config String: 1s2 2s1 2p0
Orbitals (num,occ):  3     2.00 1.00 0.00
Orbitals   (num,l):  3        0    0    1
Real-space Grid (nr,dr,rmax): 1377    0.0065406977    9.0000000000
Spherical Bessel Basis (nsws,lmax,cutoff):   37    2  183.0099912382
Confining potential (l,width,scale):  0    3.0000000000  100.0000000000
Confining potential (l,width,scale):  1    3.0000000000  100.0000000000
  1         -6.0640888065   -4.6655401716    2.5388576516   -0.9989538799
  2         -6.9627542978   -4.0954079129    2.9808988108   -1.1965571426
  3         -7.2692687601   -3.8889996707    3.2029735703   -1.3193883705
  4         -7.3784440298   -3.8322099748    3.2868571989   -1.3711018151
  5         -7.4170278248   -3.8191968371    3.3144974220   -1.3911175539
  6         -7.4303549880   -3.8172386945    3.3228486489   -1.3986896266
  7         -7.4348052089   -3.8175483495    3.3251259310   -1.4015352495
  8         -7.4362242328   -3.8180607346    3.3256233205   -1.4026016384
  9         -7.4366459715   -3.8184145665    3.3256561549   -1.4029998726
 10         -7.4367560626   -3.8186169740    3.3256001574   -1.4031477379
 11         -7.4367765260   -3.8187239825    3.3255481763   -1.4032021548
 12         -7.4367751741   -3.8187782620    3.3255144587   -1.4032219192
 13         -7.4367707398   -3.8188051288    3.3254952336   -1.4032289600
 14         -7.4367680349   -3.8188156035    3.3254870176   -1.4032309087
 15         -7.4367661982   -3.8188217406    3.3254819951   -1.4032318132
 16         -7.4367650112   -3.8188253257    3.3254789583   -1.4032322224
 17         -7.4367642682   -3.8188274151    3.3254771375   -1.4032324006
 18         -7.4367638134   -3.8188286307    3.3254760529   -1.4032324736
 19         -7.4367635392   -3.8188293370    3.3254754103   -1.4032325004
 20         -7.4367633760   -3.8188297469    3.3254750310   -1.4032325080
 21         -7.4367632796   -3.8188299846    3.3254748079   -1.4032325082
Atom SCF converged after  21 iterations to a total energy of     -7.43676328

Determining parallel strategy ...
... using space-filling curve
... NGWF load balancing: max     17;  min     13;  average     14
... Projector load balancing: max     34;  min     25;  average     28
... done
Calculating Ewald energy ...
              Ewald: real-space energy =   36313.977080
        Ewald: reciprocal-space energy =   36733.911328
         Ewald: (sum_charge)**2 Energy =    2926.647089
         Ewald: (sum_charge**2) Energy =     256.682700
                          Ewald Energy =   69864.558618
======================= Empirical dispersion information =======================
Model : Grimme D2
Dispersion Correction Energy: -0.24529893E+01 Hartree
================================================================================
Basis initialisation ...... NGWF spheres initialised
... Projector spheres initialised
... NGWF tight boxes initialised
... Projector tight boxes initialised
... Tight-boxes gathered
... NGWF basis size (local,global):     285934  45863238
... PAW projector initialisation
... done

============================= Charge Augmentation ==============================
                           Aug box size:   13 x  13 x  13
================================================================================

========================== Sparse matrix information ===========================
                        Overlap matrix filling:  35.99%
                        Density kernel filling: 100.00%
              NGWF-Proj overlap matrix filling:  10.16%
                    Aug Overlap matrix filling:  40.98%
                    Hamiltonian matrix filling:  40.98%
                  NGWF diagonal matrix filling:   0.17%
                             KS matrix filling: 100.00% 
                           KSKS matrix filling: 100.00% 
================================================================================

Sparse matrix initialisation ... done
NGWF initialisation ...... done
============ Calculation of NGWF S^-1 using Hotelling algorithm ================ 
         Iteration  |  Frobenius norm and Maximum abs value    (of I-S*S_n^-1)   
               1       0.47366988E+02     0.99663611E+00
               2       0.47065868E+02     0.99329395E+00
               3       0.46512484E+02     0.98667259E+00
               4       0.45565525E+02     0.97366740E+00
               5       0.44112887E+02     0.94851135E+00
               6       0.42149777E+02     0.90106450E+00
               7       0.39726796E+02     0.81512460E+00
               8       0.36879593E+02     0.78870635E+00
               9       0.33791383E+02     0.76740021E+00
              10       0.30755720E+02     0.74868135E+00
              11       0.27600523E+02     0.73119864E+00
              12       0.23686375E+02     0.70035052E+00
              13       0.18600764E+02     0.64505941E+00
              14       0.12602889E+02     0.55372652E+00
              15       0.71263690E+01     0.47368145E+00
              16       0.38793649E+01     0.40664168E+00
              17       0.24305101E+01     0.30685473E+00
              18       0.14071987E+01     0.17885880E+00
              19       0.57781826E+00     0.75072665E-01
              20       0.12775340E+00     0.18779251E-01
              21       0.81502791E-02     0.13259934E-02
              22       0.37712875E-04     0.69104001E-05
              23       0.89049217E-09     0.18777579E-09
              24       0.69000760E-13     0.79936058E-14
================================================================================
Calculating core density ...
================================= Core Density =================================
               Core den box size:   21 x  21 x  21
================================================================================
 ... done
Up spin density kernel initialisation ...... done
Down spin density kernel initialisation ...... done

Writing density kernel to file "46/592nano.dkn" ... done

>>> Optimising kernel for current NGWFs:

--------------------------- Ensemble-DFT optimisation --------------------------
Running ScaLAPACK on  160 processor(s).

--------------------------------------------------------------------------------
  Iter                              Commutator    Free_energy(A=E-TS)     DeltaA
#    0                          0.001292012455   -3164.24070110974071  -3.16E+03

Step                       =       0.381966011250
Energy                     =   -3164.205472092595
Entropy (-TS)              =      -0.035229016765
Free energy (A=E-TS)       =   -3164.240701109741
Est. 0K Energy 0.5*(E+A)   =   -3164.223086601168
Residual Non-orthogonality =       0.000000000000
Residual N_electrons       =      -0.000000000381

Spin          Integrated_Ne            Fermi_level     Delta_Fermi_level
   1      1090.999999999163        -0.227027090681             -2.27E-01
   2      1090.999999999160        -0.227027090685             -2.27E-01

                           Spin 1           |                 Spin 2           |
     Orb |    H-eigenvalues     Occupancies |    H-eigenvalues     Occupancies |
       1 |    -1.8791096797    1.0000000000 |    -1.8791096797    1.0000000000 | 
                          ------                             ------
    1087 |    -0.2348790314    0.9226883501 |    -0.2348790314    0.9226883501 | 
    1088 |    -0.2337320406    0.8925690742 |    -0.2337320406    0.8925690742 | 
    1089 |    -0.2301238588    0.7266877738 |    -0.2301238589    0.7266877738 | 
    1090 |    -0.2289319161    0.6459985674 |    -0.2289319161    0.6459985674 | 
    1091 |    -0.2283814939    0.6053211421 |    -0.2283814939    0.6053211421 | 
                 - Gap at zero temperature - |     - Gap at zero temperature -
    1092 |    -0.2275503783    0.5412165535 |    -0.2275503783    0.5412165535 | 
    1093 |    -0.2239139652    0.2722875463 |    -0.2239139652    0.2722875463 | 
    1094 |    -0.2233503706    0.2384826429 |    -0.2233503706    0.2384826429 | 
    1095 |    -0.2192195126    0.0783168841 |    -0.2192195126    0.0783168841 | 
    1096 |    -0.2169351693    0.0396663762 |    -0.2169351693    0.0396663762 | 
                          ------                             ------
    2274 |     0.5557158262    0.0000000000 |     0.5557158262    0.0000000000 | 

                       |  Abs_value |  Threshold | Converged
     Delta_Free_energy |   3.16E+03 |   1.00E-06 |        No
     Delta_Energy      |   3.16E+03 |   1.00E-04 |        No
     Delta_Entropy     |   3.52E-02 |   1.00E-04 |        No
     Commutator        |   1.29E-03 |   1.00E-05 |        No
     Delta_Fermi_level |   2.27E-01 |   1.00E-03 |        No

  Line search of the free energy minimum:
  Step_type        Step             Free_energy   Predicted_free_energy
.   Initial    0.000000    -3164.24070110974071
.    Trial1    0.381966    -3161.66695798108321
.    Trial2    0.145898    -3165.08512173073450
. Quadratic    0.127488    -3165.06809018461763    -3165.10310531121968
.     Cubic    0.146582    -3165.08515214028785    -3165.08514414573847

--------------------------------------------------------------------------------
  Iter                              Commutator    Free_energy(A=E-TS)     DeltaA
#    1                          0.000941296260   -3165.08515214028785  -8.44E-01

Step                       =       0.146582430246
Energy                     =   -3165.042296613737
Entropy (-TS)              =      -0.042855526587
Free energy (A=E-TS)       =   -3165.085152140288
Est. 0K Energy 0.5*(E+A)   =   -3165.063724377012
[...]
 H   584 -- Li  602       -0.03      0.00      5.43857
 C    29 -- C   355       -0.08      0.00      5.43862
 C    38 -- C   104       -0.08      0.00      5.43885
 C    99 -- C   521       -0.08      0.00      5.43945
 C   434 -- C   448       -0.08      0.00      5.43968
 C   217 -- C   223       -0.08      0.00      5.43982
 C    44 -- C    58       -0.08     -0.00      5.43994
 C   273 -- C   435       -0.08      0.00      5.43994
 C   185 -- C   235       -0.08      0.00      5.44007
 C   261 -- C   427       -0.07     -0.00      5.44008
 C   444 -- C   492       -0.08     -0.00      5.44014
 C   477 -- C   485       -0.08      0.00      5.44058
 C   466 -- C   476       -0.08      0.00      5.44305
 C   413 -- C   441       -0.07      0.00      5.44310
 C    51 -- C   521       -0.07      0.00      5.44357
 C   368 -- C   394       -0.08      0.00      5.44364
 C    96 -- C   567       -0.07      0.00      5.44496
 C    37 -- C   508       -0.06      0.00      5.44553
 C    72 -- C   560       -0.08      0.00      5.44574
 C    52 -- C   338       -0.08      0.00      5.44587
 C   261 -- C   263       -0.08     -0.00      5.44598
 C   442 -- C   456       -0.08      0.00      5.44689
 C   409 -- C   485       -0.07      0.00      5.44734
 C   182 -- C   188       -0.08      0.00      5.44801
 C    21 -- C    63       -0.07      0.00      5.44844
 C   258 -- C   288       -0.08      0.00      5.44848
 C   253 -- C   413       -0.08      0.00      5.44933
 C     2 -- C   270       -0.08      0.00      5.44959
 C   181 -- C   183       -0.08      0.00      5.44986
 C    34 -- C   100       -0.08     -0.00      5.45006
 H   561 -- Li  618       -0.03      0.00      5.45052
 C   199 -- C   241       -0.07      0.00      5.45111
 C   333 -- C   365       -0.08      0.00      5.45112
 C    87 -- C    93       -0.08      0.00      5.45131
 H   587 -- Li  604       -0.02     -0.00      5.45166
 C   461 -- C   479       -0.08      0.00      5.45189
 Li  610 -- Li  624       -0.14      0.00      5.45206
 C   231 -- C   323       -0.08     -0.00      5.45220
 C   256 -- C   290       -0.08      0.00      5.45268
 C    34 -- C    52       -0.08      0.00      5.45306
 C   406 -- C   440       -0.07      0.00      5.45330
 C    83 -- C   467       -0.08      0.00      5.45390
 C   343 -- C   365       -0.08     -0.00      5.45444
 C    17 -- C   281       -0.07     -0.00      5.45469
 H   398 -- Li  621       -0.02      0.00      5.45536
 C   197 -- C   295       -0.07      0.00      5.45646
 C    39 -- C   506       -0.07      0.00      5.45690
 C   201 -- C   239       -0.07      0.00      5.45739
 C   466 -- C   538       -0.08      0.00      5.46081
 C   427 -- Li  638       -0.03      0.00      5.46432
 C    76 -- C   564       -0.06     -0.00      5.46487
 C    71 -- C    93       -0.07      0.00      5.46561
 C    83 -- C    85       -0.07      0.00      5.46649
 H   544 -- Li  596       -0.02     -0.00      5.46852
 C   197 -- C   199       -0.07      0.00      5.46870
 C   445 -- C   467       -0.07      0.00      5.46900
 H   577 -- Li  618       -0.02     -0.00      5.46965
 C   427 -- C   445       -0.06      0.00      5.47077
 C   338 -- C   380       -0.06      0.00      5.47559
 H   146 -- Li  603       -0.02      0.00      5.47612
 C    55 -- C   525       -0.07      0.00      5.47902
 Li  605 -- Li  619       -0.15      0.00      5.48157
 H   535 -- Li  617       -0.02      0.00      5.48359
 C   252 -- C   286       -0.06      0.00      5.48682
 H   592 -- Li  615       -0.02      0.00      5.48734
 H   590 -- Li  599       -0.02      0.00      5.48923
 C   423 -- C   489       -0.06      0.00      5.49098
 C   231 -- C   241       -0.06      0.00      5.49248
 C    92 -- Li  636       -0.07     -0.00      5.49272
 C   364 -- C   390       -0.06      0.00      5.49312
 C   188 -- C   286       -0.05      0.00      5.49391
 C   254 -- C   284       -0.06      0.00      5.49951
 C    80 -- C   538       -0.06      0.00      5.49966
 C   190 -- C   284       -0.06      0.00      5.50133
 H   474 -- Li  610       -0.03      0.00      5.50454
 H   412 -- Li  622       -0.02      0.00      5.50586
 C   233 -- C   239       -0.06      0.00      5.50724
 C   466 -- Li  600       -0.05      0.00      5.51454
 H   138 -- Li  620       -0.02     -0.00      5.52012
 C   408 -- Li  638       -0.04     -0.00      5.54496
 Li  599 -- Li  617       -0.16      0.00      5.54680
 H   584 -- Li  623       -0.02      0.00      5.55030
 C   128 -- Li  601       -0.06      0.00      5.55097
 C   421 -- Li  638       -0.04      0.00      5.55274
 C   169 -- Li  598       -0.05      0.00      5.55376
 C   309 -- Li  606       -0.05      0.00      5.56277
 H   584 -- Li  630       -0.02      0.00      5.56356
 C   423 -- Li  624       -0.05     -0.00      5.56985
 C   414 -- Li  638       -0.06      0.00      5.57050
 H   585 -- Li  625        0.01     -0.00      5.57731
 C   445 -- Li  624       -0.05      0.00      5.58189
 H   162 -- Li  612       -0.02      0.00      5.58204
 H   174 -- Li  611       -0.02      0.00      5.58368
 H   589 -- Li  622       -0.02      0.00      5.58405
 Li  601 -- Li  628       -0.12      0.00      5.58484
 H   519 -- Li  601       -0.03      0.00      5.58966
 C    72 -- Li  601       -0.05      0.00      5.59456
 H   129 -- Li  619       -0.02     -0.00      5.60218
 H   582 -- Li  607       -0.02     -0.00      5.60252
 H   530 -- Li  617       -0.02     -0.00      5.60970
 H   589 -- Li  600       -0.01      0.00      5.61082
 H   168 -- Li  598       -0.02     -0.00      5.61882
 H   156 -- Li  620       -0.02     -0.00      5.62320
 C   330 -- Li  620       -0.05     -0.00      5.62806
 H   369 -- Li  615       -0.02     -0.00      5.63020
 C   558 -- Li  636       -0.06      0.00      5.63742
 C    34 -- Li  627       -0.05      0.00      5.65176
 H   135 -- Li  595       -0.02     -0.00      5.65193
 H   154 -- Li  607       -0.02      0.00      5.65261
 C   257 -- Li  611       -0.05      0.00      5.65371
 H   131 -- Li  634       -0.02     -0.00      5.65525
 C   210 -- Li  603       -0.06     -0.00      5.65723
 H   152 -- Li  626       -0.01      0.00      5.65807
 H   484 -- Li  622       -0.01      0.00      5.66046
 H   539 -- Li  617       -0.02      0.00      5.66257
 C   470 -- Li  610       -0.05      0.00      5.66717
 H   402 -- Li  613       -0.02     -0.00      5.66726
 C   198 -- Li  603       -0.05      0.00      5.66794
=============================================================


============== Orbital energy and occupancy information for spin 1 =============

      Total number of orbitals:    2274
        Occupancy sum (kernel):    1090.999999998
   Occupancy sum (eigenvalues):    1090.999999998
                 HOMO-LUMO gap:       0.000814902 Eh
                 Mid-gap level:      -0.075693936 Eh

                        Orbital | Energy (Eh) | Occupancy
                            1    -1.844752665   1.0000000
                        .......   ...........   .........
                         1082    -0.097388080   0.9979841
                         1083    -0.095029066   0.9957641
                         1084    -0.094257895   0.9946052
                         1085    -0.093359901   0.9928785
                         1086    -0.090732790   0.9837108
                         1087    -0.087569971   0.9569853
                         1088    -0.087312339   0.9536866
                         1089    -0.077347808   0.4670854
                         1090    -0.076923271   0.4343803
                         1091    -0.076101387   0.3733913
                        ....... -- gap at 0K -- .........
                         1092    -0.075286486   0.3149077
                         1093    -0.074246352   0.2478113
                         1094    -0.073851152   0.2254490
                         1095    -0.073564721   0.2099405
                         1096    -0.073085213   0.1857871
                         1097    -0.072552787   0.1620584
                         1098    -0.071703168   0.1284686
                         1099    -0.071360155   0.1165029
                         1100    -0.069070465   0.0601667
                         1101    -0.068314803   0.0478497
                        .......   ...........   .........
                         2274     0.770166248   0.0000000

================================================================================

============== Orbital energy and occupancy information for spin 2 =============

      Total number of orbitals:    2274
        Occupancy sum (kernel):    1091.000000004
   Occupancy sum (eigenvalues):    1091.000000004
                 HOMO-LUMO gap:       0.001040134 Eh
                 Mid-gap level:      -0.074766419 Eh

                        Orbital | Energy (Eh) | Occupancy
                            1    -1.844752665   1.0000000
                        .......   ...........   .........
                         1083    -0.095029066   0.9957641
                         1084    -0.094257895   0.9946052
                         1085    -0.093359901   0.9928785
                         1086    -0.090732790   0.9837108
                         1087    -0.087569971   0.9569853
                         1088    -0.087312339   0.9536866
                         1089    -0.077347808   0.4670854
                         1090    -0.076923271   0.4343803
                         1091    -0.076101387   0.3733913
                         1092    -0.075286486   0.3149077
                        ....... -- gap at 0K -- .........
                         1093    -0.074246352   0.2478113
                         1094    -0.073851152   0.2254490
                         1095    -0.073564721   0.2099405
                         1096    -0.073085213   0.1857871
                         1097    -0.072552787   0.1620584
                         1098    -0.071703168   0.1284686
                         1099    -0.071360155   0.1165030
                         1100    -0.069070465   0.0601667
                         1101    -0.068314803   0.0478497
                         1102    -0.067841888   0.0415532
                        .......   ...........   .........
                         2274     0.770166248   0.0000000

================================================================================

===================== Writing canonical molecular orbitals =====================
    Spin 1
| Orbital  Energy (eV)  Norm     |
| HOMO     -2.07082412  1.000000 | Writing "46/592nano_HOMO_UP.cube" ... done
Writing "46/592nano_HOMO_UP.dx" ... done
| LUMO     -2.04864952  1.000000 | Writing "46/592nano_LUMO_UP.cube" ... done
Writing "46/592nano_LUMO_UP.dx" ... done
================================================================================

===================== Writing canonical molecular orbitals =====================
    Spin 2
| Orbital  Energy (eV)  Norm     |
| HOMO     -2.04864952  1.000000 | Writing "46/592nano_HOMO_DN.cube" ... done
Writing "46/592nano_HOMO_DN.dx" ... done
| LUMO     -2.02034603  1.000000 | Writing "46/592nano_LUMO_DN.cube" ... done
Writing "46/592nano_LUMO_DN.dx" ... done
================================================================================

================== Local Density of States (LDOS) calculation ==================
Writing "46/592nano_UP_LDOS.txt" ...  done
================================================================================

================== Local Density of States (LDOS) calculation ==================
Writing "46/592nano_DN_LDOS.txt" ...  done
================================================================================
 
=============== Density of States (DOS) calculation for UP spin ================
Writing "46/592nano_UP_DOS.txt" ...  done
================================================================================
 
============== Density of States (DOS) calculation for DOWN spin ===============
Writing "46/592nano_DN_DOS.txt" ...  done
================================================================================
 
Writing bands to file "46/592nano.val_bands" ... done
 
================ Projected Density of States (pDOS) calculation ================
 
Constructing AM resolved functions  ...... done
Writing NGWF plot files in formats: CUBE DX ...  done
 
Performing overlap integrals ...  done
 
Computing pDOS weights ...  done
 
All bands spilling parameter =   3.01 %
Occupancy-weighted spilling parameter =   0.83 %
 
 => Outputting data for OptaDOS <=
 
Writing pDOS weights to file "46/592nano.val_pdos_bin" ... done
 
Writing band gradients to file "46/592nano.val_dome_bin" ... done
 
Writing Castep output cell file to "46/592nano-out.cell" ... done
 
 => Computing Gaussian smeared pDOS for UP spin<= 
Writing "46/592nano_UP_PDOS.txt" ...  done
 
 => Computing Gaussian smeared pDOS for DOWN spin<= 
Writing "46/592nano_DN_PDOS.txt" ...  done
 
 => Computing Occupancy-weighted Gaussian smeared pDOS for UP spin<= 
Writing "46/592nano_occ_UP_PDOS.txt" ...  done
  => Band centres for UP spin channel: 
 S band centre of group 1:  -19.325803 eV
 P band centre of group 1:   -8.390006 eV
  Band centres for UP spin channel done. <= 
  => Integrated number of electrons in each AM band for UP spin channel: 
 S num electrons of group 1:  310.702311
 P num electrons of group 1:  771.197317
  Integrated number of electrons for UP spin channel done. <= 
 
 => Computing Occupancy-weighted Gaussian smeared pDOS for DOWN spin<= 
Writing "46/592nano_occ_DN_PDOS.txt" ...  done
  => Band centres for DOWN spin channel: 
 S band centre of group 1:  -19.325803 eV
 P band centre of group 1:   -8.390006 eV
  Band centres for DOWN spin channel done. <=
  => Integrated number of electrons in each AM band for DOWN spin channel: 
 S num electrons of group 1:  310.702311
 P num electrons of group 1:  771.197317
  Integrated number of electrons for DOWN spin channel done. <=
================================================================================

------------------------------ TIMING INFORMATION ------------------------------
AVERAGE TIME:   19360.440s on    160 node(s)                                    
TOTAL TIME:     19360.474s on    160 node(s)                                    
================= AVERAGE TIMINGS FROM ALL NODES (CUMULATIVE) ==================
|| TAG                                    #calls    cpu time   %total  Gflops ||
|| work_imbalance                       :     1        0.00s   0.000%  ------ ||
|| paw_tcore_density                    :     1        0.01s   0.000%  ------ ||
|| sparse_set_to_garbage                :   237        0.01s   0.000%  ------ ||
|| paw_sphere_density_on_grid           :     1        0.01s   0.000%  ------ ||
|| basis_extract_function_from_box      :   397        0.02s   0.000%  ------ ||
|| paw_dij_hartree                      :  1024        0.04s   0.000%  ------ ||
|| ngwfs_initialise_from_radial         :     2        0.04s   0.000%  ------ ||
|| ewald_calculate_energy               :     1        0.11s   0.001%  ------ ||
|| density_init_guess_real              :     1        0.25s   0.001%  ------ ||
|| paw_tcore_hartree_on_grid            :     1        0.37s   0.002%  ------ ||
|| paw_dataset_init                     :     3        0.43s   0.002%  ------ ||
|| pseudo_make_structure_factor         :     1        0.53s   0.003%  ------ ||
|| sparse_init                          :     1        1.04s   0.005%  ------ ||
|| dense_normal_eigensolve              :     1        1.22s   0.006%  ------ ||
|| paw_species_calc_proj_prec_mat       :     1        2.16s   0.011%  ------ ||
|| restart_kernel_write                 :    15        2.24s   0.012%  ------ ||
|| sparse_embed_hotelling_invert_embed  :    27        6.56s   0.034%  ------ ||
|| sw_init                              :     1        7.52s   0.039%  ------ ||
|| ngwf_gradient_coeffs                 :    14        9.40s   0.049%  ------ ||
|| fourier_apply_box_pair               :   994       11.66s   0.060%  2.253k ||
|| augmentation_screen_dij              :   772       15.59s   0.081%  ------ ||
|| projectors_init_fftbox_recip         :    85       31.04s   0.160%  ------ ||
|| basis_copy_function_to_box           : 29547       38.71s   0.200%  ------ ||
|| hartree_on_grid                      :   767       39.42s   0.204%  ------ ||
|| integrals_kinetic                    :    27       40.85s   0.211%  ------ ||
|| function_ops_brappd_ketppd           :    56       43.29s   0.224%  ------ ||
|| projectors_func_ovlp_box             :    28       44.85s   0.232%  ------ ||
|| paw_dij_xc                           :  1024       47.31s   0.244%  ------ ||
|| hamiltonian_energy_components        :     3       86.92s   0.449%  ------ ||
|| eigenstates_pdos                     :     1      113.15s   0.584%  ------ ||
|| sparse_trace                         : 19160      118.82s   0.614%  ------ ||
|| augmentation_density_on_grid         :   767      121.24s   0.626%  ------ ||
|| fourier_apply_cell_forward           :  6895      141.04s   0.728% 170.157 ||
|| aug_nonlocal_mat                     :  1010      142.61s   0.737%  ------ ||
|| fourier_apply_cell_backward          :  6896      146.04s   0.754% 164.355 ||
|| basis_dot_function_with_box          : 6.168M     168.49s   0.870%  ------ ||
|| restart_ngwfs_tightbox_output        :    13      182.08s   0.940%  ------ ||
|| eigenstates_calculate                :     1      226.36s   1.169%  ------ ||
|| xc_energy_potential                  :   766      292.05s   1.508%  ------ ||
|| sparse_product                       : 16471      467.06s   2.412%  ------ ||
|| dense_eigensolve                     :  1472      560.53s   2.895%  ------ ||
|| basis_add_function_to_box            : 19.15M     626.95s   3.238%  ------ ||
|| projectors_gradient_batch            :    28      632.11s   3.265%  ------ ||
|| cell_grid_extract_box_real           : 17234      682.06s   3.523%  ------ ||
|| cell_grid_deposit_box_real           : 56851      766.84s   3.961%  ------ ||
|| projectors_grad_precond_batch        :    28      900.77s   4.653%  ------ ||
|| integrals_locpot_mat_els_batch       :  1002     1038.47s   5.364%  ------ ||
|| density_fftbox_deposit_to_cell       : 26078     1543.26s   7.971%  ------ ||
|| properties_calculate                 :     1     1575.65s   8.139%  ------ ||
|| ngwf_gradient_build_batch            :    28     1710.56s   8.835%  ------ ||
|| density_batch_row_sums               :  1534     1752.98s   9.054%  ------ ||
|| ngwf_gradient_batch                  :    28     1874.84s   9.684%  ------ ||
|| edft_diag_ngwf_ham                   :  1470     1894.39s   9.785%  ------ ||
|| potential_apply_to_ngwf_batch        :  1002     1904.73s   9.838%  ------ ||
|| fourier_apply_box                    : 93554     2105.82s  10.877%  3.858k ||
|| density_fftbox_interpolate_multiply  : 26078     2440.99s  12.608%  ------ ||
|| ngwf_gradient_lnv                    :    14     2671.41s  13.798%  ------ ||
|| integrals_locpot_dbl_grid            :   501     2955.86s  15.268%  ------ ||
|| edft_apply_smearing_operator         :   735     3163.17s  16.338%  ------ ||
|| density_batch_interp_deposit         :  1534     4762.46s  24.599%  ------ ||
|| density_on_dbl_grid                  :   767     7076.43s  36.551%  ------ ||
|| hamiltonian_lhxc_calculate           :   762     7929.65s  40.958%  ------ ||
|| edft_calculate                       :    14    14338.80s  74.062%  ------ ||
|| ngwf_cg_optimise                     :     1    17761.84s  91.743%  ------ ||
|| total_time                           :     1    19360.44s 100.000%  ------ ||
================================================================================
Overhead of generating timer report: 
- 0 ms averaging over threads,
- 25 ms ensuring consistency across MPI ranks,
- 0 ms printing in order.

Job completed: 17-10-2020 20:46 (+0100)

