 +---------------------------------------------------------------+
 |                                                               |
 |        ####### #     # ####### ####### ####### ######         |
 |        #     # ##    # #          #    #       #     #        |
 |        #     # # #   # #          #    #       #     #        |
 |        #     # #  #  # #####      #    #####   ######         |
 |        #     # #   # # #          #    #       #              |
 |        #     # #    ## #          #    #       #              |
 |        ####### #     # #######    #    ####### #              |
 |                                                               |
 |        Linear-Scaling Ab Initio Total Energy Program          |
 |                                                               |
 |          Release for academic collaborators of ODG            |
 |                                             Version 6.1.2.01  |
 |                                                               |
 +---------------------------------------------------------------+
 |                                                               |
 |  Authors:                                                     |
 |  Jacek Dziedzic, Peter D. Haynes, Nicholas D. M. Hine,        |
 |  Arash A. Mostofi, Mike C. Payne and Chris-Kriton Skylaris    |
 |                                                               |
 |  Contributors:                                                |
 |  J. Aarons, L. Andrinopoulos, P. W. Avraam, R. A. Bell,       |
 |  A. Bhandari, G. A. Bramley, R. J. Charlton, S. J. Clark,     |
 |  R. J. Clements, G. C. Constantinescu, F. Corsetti,           |
 |  N. Corsini, O. Dieguez, S. M. M. Dubois, K. K. B. Duff,      |
 |  J. M. Escartin, A. Greco, H. Helal, Q. O. Hill, L. P. Lee,   |
 |  J.-H. Li, E. B. Linscott, G. Moynihan, D. D. O`Regan,        |
 |  O. K. Okan, M. J. S. Phipps, C. J. Pickard,                  |
 |  J. C. A. Prentice, M. I. J. Probert, L. E. Ratcliff,         |
 |  M. Robinson, A. Ruiz Serrano, J. S. Spencer, E. W. Tait,     |
 |  G. Teobaldi, D. Turban, V. Vitale, K. A. Wilkinson,          |
 |  C. Weber, J. C. Womack, N. Yeung and T. J. Zuehlsdorff       |
 |                                                               |
 |                                   Copyright (c) 2004-2021     |
 |                                                               |
 |  Please cite:                                                 |
 |  "The ONETEP linear-scaling density functional theory program"|
 |   J. Chem. Phys. 152(17) 174111 (2020)                        |
 |                                                               |
 |          in all publications arising from your use of ONETEP. |
 |                                                               |
 +---------------------------------------------------------------+
 |                                                               |
 |   ONETEP is based on developments described in the following  |
 |   publications:                                               |
 |                                                               |
 |  "Nonorthogonal generalized Wannier function pseudopotential  |
 |   plane-wave method".                                         |
 |   C.-K. Skylaris, A. A. Mostofi, P. D. Haynes, O. Dieguez,    |
 |   M. C. Payne.                                                |
 |   Phys. Rev. B 66 035119 (2002).                              |
 |                                                               |
 |  "Preconditioned iterative minimization for linear-scaling    |
 |   electronic structure calculations".                         |
 |   A. A. Mostofi, P. D. Haynes, C.-K. Skylaris, M. C. Payne.   |
 |   J. Chem. Phys. 119(17), pp.8842-8848 (2003).                |
 |                                                               |
 |  "Total-energy calculations on a real space grid with         |
 |   localized functions and a plane-wave basis".                |
 |   A. A. Mostofi, C.-K. Skylaris, P. D. Haynes, M. C. Payne.   |
 |   Comput. Phys. Commun. 147, pp.788-802 (2002).               |
 |                                                               |
 |  "Accurate kinetic energy evaluation in electronic structure  |
 |   calculations with localized functions on real space grids"  |
 |   C.-K. Skylaris, A. A. Mostofi, P. D. Haynes, C. J. Pickard, |
 |   M. C. Payne.                                                |
 |   Comput. Phys. Commun. 140, pp.315-322 (2001).               |
 |                                                               |
 |  "Accurate ionic forces and geometry optimization in linear-  |
 |   scaling density-functional theory with local orbitals"      |
 |   N. D. M. Hine, M. Robinson, P. D. Haynes, C.-K. Skylaris,   |
 |   M. C. Payne, and A. A. Mostofi.                             |
 |   Phys. Rev. B 83 195102 (2011).                              |
 |                                                               |
 +---------------------------------------------------------------+

Job started: 29-06-2021 11:21 (+0100)
 
Reading parameters from file "2/592nano.dat" ...... done

If your calculation crashes here, before "Checking processes and threads..."
is displayed, then your stack size is insufficient.
If so, use "ulimit -s unlimited" at runtime.
You can disable this check with "check_stack_size F".

Checking processes and threads...
   Determining the default number of threads...
      No default threads set at compilation time: defaulting to 1.
      OpenMP library call suggests 4 threads.
      Hybrid MPI-OpenMP compilation detected.
      Number of MPI processes > 1.
      OMP_NUM_THREADS environment variable present and
      its value matches the one obtained from the OpenMP library call.
      Using this value as default.
      Default threads: 4
      Default applies to threads_max and threads_num_fftboxes.
      Settings in the input file override this default.
   ... done

   Running with 160 MPI processes.
   There are 10 MPI processes running on the same node as the root process.
   Each MPI process is using: 
               1 threads for simulation cell FFTs.
               1 threads for parallel FFT box operations.
               4 threads for loops over batched FFT box operations.
               4 threads in other parallel regions.
... done

Basic input checks...
Resetting ngwf_cg_rotate to TRUE for EDFT calculations
... done

Reading geometry and species blocks from file "2/592nano.dat" ...    
  Number of PPD points along a3 set to 1.  This is 
  the default value, it may have been provided also in the input file.
... done
 Writing xyz coordinates to file "2/592nano.xyz" ... done


--------------------------------------------------------------------------------
---------------------------------- INPUT FILE ----------------------------------
--------------------------------------------------------------------------------

task : singlepoint                                                              
do_properties : true                                                            
ddec_classical_hirshfeld T                                                      
dx_format T                                                                     
edft T                                                                          
edft_spin_fix 3                                                                 
output_detail VERBOSE                                                           
write_xyz T                                                                     
edft_update_scheme: pulay_mix                                                   
edft_ham_diis_size: 10                                                          
edft_trial_step: 0.382                                                          
xc_functional OPTPBE                                                            
cutoff_energy 830 eV                                                            
paw T                                                                           
geom_disp_tol 0.015 bohr                                                        
geom_energy_tol 1.5E-6 hartree                                                  
geom_force_tol 0.003 "ha/bohr"                                                  
EDFT_MAXIT 30                                                                   
pdos_max_l = 2                                                                  
dos_smear  0.1 eV                                                               
popn_calculate T                                                                
PDOS_PSEUDOATOMIC T                                                             
PDOS_REDUCE_SWS F                                                               
PDOS_CONSTRUCT_BASIS F                                                          
PDOS_LOWDIN T                                                                   
PDOS_ORTH_ATOM_BLOCKS F                                                         
PDOS_LCAO_OPTIMIZE F                                                            
pdos_optados_output T                                                           
homo_plot 0                                                                     
lumo_plot 0                                                                     
homo_dens_plot -1                                                               
lumo_dens_plot -1                                                               
%BLOCK SPECIES                                                                  
C C 6 4 9.0                                                                     
H H 1 1 9.0                                                                     
Li Li 3 5 9.0                                                                   
%ENDBLOCK SPECIES                                                               
%BLOCK SPECIES_POT                                                              
C "~/pp/paw/c_pbe_abinit.paw"                                                   
H "~/pp/paw/h_pbe_abinit.paw"                                                   
Li "~/pp/paw/li_pbe_abinit.paw"                                                 
%ENDBLOCK SPECIES_POT                                                           
%BLOCK SPECIES_ATOMIC_SET                                                       
C "SOLVE conf=2s2 2p2"                                                          
H "SOLVE conf=1s1"                                                              
Li "SOLVE conf=1s2 2s1 2p0"                                                     
%ENDBLOCK SPECIES_ATOMIC_SET                                                    
%BLOCK SPECIES_LDOS_GROUPS                                                      
C                                                                               
H                                                                               
Li                                                                              
%ENDBLOCK SPECIES_LDOS_GROUPS                                                   
%BLOCK LATTICE_CART                                                             
94.486315650000      0.000000000000       0.000000000000                        
0.000000000000       94.486315650000      0.000000000000                        
0.000000000000       0.000000000000       94.486315650000                       
%ENDBLOCK LATTICE_CART                                                          
%BLOCK POSITIONS_ABS                                                            
C 42.802637 41.373383 31.335711                                                 
C 38.757515 43.709291 31.335437                                                 
C 41.449838 39.032255 31.307871                                                 
C 45.495924 41.372831 31.339204                                                 
C 37.406386 41.367417 31.308018                                                 
C 37.411970 46.041109 31.338351                                                 
C 54.930834 48.374127 31.335300                                                 
C 54.929636 53.044494 31.338730                                                 
C 53.585036 46.042134 31.333246                                                 
C 38.757047 57.710160 31.336216                                                 
C 42.802326 60.044499 31.335971                                                 
C 37.411297 55.378872 31.338731                                                 
C 53.582781 55.375944 31.338533                                                 
C 45.495208 60.044153 31.338087                                                 
C 46.849195 39.029892 31.317751                                                 
C 41.455238 43.710164 31.342890                                                 
C 34.706510 46.042088 31.316620                                                 
C 50.894366 41.363060 31.317608                                                 
C 53.580501 50.709064 31.346525                                                 
C 34.704928 50.710428 31.322854                                                 
C 41.454877 57.708366 31.343555                                                 
C 38.755391 39.035764 31.283159                                                 
C 54.937323 43.699534 31.295316                                                 
C 49.540718 43.707346 31.340367                                                 
C 37.412053 50.710112 31.340866                                                 
C 49.538952 57.709767 31.339501                                                 
C 34.705920 55.378675 31.316822                                                 
C 57.635177 48.375508 31.305479                                                 
C 50.892080 60.053411 31.320880                                                 
C 57.634165 53.044006 31.313200                                                 
C 37.405803 60.052154 31.309502                                                 
C 54.934090 57.718994 31.315189                                                 
C 50.884097 55.376637 31.339772                                                 
C 46.844980 57.707974 31.339607                                                 
C 41.449570 62.385928 31.309019                                                 
C 46.848439 62.386270 31.315567                                                 
C 46.845999 43.709523 31.341567                                                 
C 50.885679 46.040990 31.340613                                                 
C 38.760266 48.378439 31.340231                                                 
C 38.759893 53.041559 31.340499                                                 
C 49.543546 39.031267 31.304015                                                 
C 33.361846 48.375170 31.305197                                                 
C 42.805169 36.700203 31.270454                                                 
C 53.589622 41.367933 31.285245                                                 
C 34.708778 41.375761 31.270194                                                 
C 33.361493 53.045765 31.305219                                                 
C 45.490610 36.698420 31.282346                                                 
C 33.366301 43.700350 31.281210                                                 
C 58.979442 50.710154 31.288517                                                 
C 53.586122 60.049346 31.302602                                                 
C 49.541424 62.384130 31.303311                                                 
C 38.755134 62.383617 31.285232                                                 
C 50.883496 50.709007 31.341637                                                 
C 42.802975 55.373644 31.339399                                                 
C 42.803172 46.045026 31.339540                                                 
C 57.636252 43.711712 31.242941                                                 
C 58.977249 46.036489 31.249512                                                 
C 33.365493 57.720678 31.282425                                                 
C 34.708096 60.044884 31.272291                                                 
C 58.975360 55.384894 31.272382                                                 
C 49.535810 53.041109 31.339394                                                 
C 45.496716 55.372780 31.338386                                                 
C 57.633007 57.708801 31.280243                                                 
C 49.536541 48.376652 31.341067                                                 
C 41.457051 53.041047 31.338839                                                 
C 42.805198 64.717831 31.270923                                                 
C 41.457286 48.378193 31.338639                                                 
C 45.497358 46.045299 31.339745                                                 
C 45.490602 64.718019 31.280708                                                 
C 37.395886 36.682133 31.205987                                                 
C 46.842512 53.040643 31.333697                                                 
C 42.803829 50.709657 31.333577                                                 
C 46.842980 48.377783 31.334979                                                 
C 41.428000 34.350786 31.191909                                                 
C 33.361672 39.008732 31.191743                                                 
C 50.908662 36.670047 31.243718                                                 
C 54.950694 39.004656 31.214627                                                 
C 30.634644 48.377546 31.246521                                                 
C 46.866991 34.343823 31.216093                                                 
C 30.634214 53.044407 31.246699                                                 
C 30.638882 43.715460 31.214847                                                 
C 45.496617 50.709414 31.333243                                                 
C 61.698958 50.712011 31.212374                                                 
C 38.786321 34.390255 31.155758                                                 
C 34.715236 36.740520 31.155719                                                 
C 37.395915 64.738089 31.209694                                                 
C 58.985488 41.344216 31.146994                                                 
C 54.947330 62.411975 31.243291                                                 
C 50.906270 64.744461 31.244221                                                 
C 61.700572 46.056825 31.172950                                                 
C 30.637984 57.706573 31.216383                                                 
C 61.699824 55.368386 31.195007                                                 
C 33.361065 62.412603 31.195705                                                 
C 41.428652 67.068344 31.194369                                                 
C 58.982936 60.078134 31.212360                                                 
C 46.866879 67.072235 31.213861                                                 
C 49.504756 34.373650 31.206513                                                 
C 29.346670 46.014012 31.206058                                                 
C 62.988692 48.363233 31.155813                                                 
C 53.576737 36.719572 31.205779                                                 
C 62.988343 53.062647 31.162469                                                 
C 57.642044 39.075357 31.149255                                                 
C 29.342807 50.711040 31.220467                                                 
C 42.851210 32.026621 31.125389                                                 
C 34.714659 64.680878 31.160370                                                 
C 38.786269 67.030248 31.159821                                                 
C 29.345875 55.408186 31.206861                                                 
C 30.636922 39.079405 31.125698                                                 
C 45.436409 32.022348 31.141763                                                 
C 29.342281 41.316513 31.142122                                                 
C 57.638230 62.345582 31.202987                                                 
C 53.573149 64.696235 31.217649                                                 
C 49.504294 67.041156 31.204167                                                 
H 37.742979 32.588385 31.074623                                                 
H 33.675896 34.936155 31.074888                                                 
C 63.000332 43.665320 31.085651                                                 
C 61.709620 41.425368 31.072256                                                 
C 63.000657 57.763248 31.126648                                                 
C 29.341538 60.106018 31.144868                                                 
C 30.636316 62.342966 31.129798                                                 
C 61.708896 60.001965 31.141004                                                 
C 42.851779 69.393021 31.128256                                                 
C 45.437321 69.394713 31.142793                                                 
H 65.070865 53.061774 31.077675                                                 
H 65.071183 48.366287 31.074940                                                 
H 50.544759 32.567134 31.144270                                                 
H 41.798325 30.231011 31.054356                                                 
H 29.609146 37.269185 31.055746                                                 
H 27.261689 46.012028 31.147889                                                 
H 37.743604 68.833059 31.078097                                                 
H 33.676316 66.486325 31.078580                                                 
H 58.685440 37.270225 31.089826                                                 
H 27.260963 55.410657 31.148968                                                 
H 46.488223 30.225236 31.087150                                                 
H 54.617747 34.913395 31.145320                                                 
H 27.259616 41.330572 31.089695                                                 
H 27.257995 50.711071 31.161651                                                 
H 58.682940 64.149299 31.145074                                                 
H 50.543914 68.847688 31.145622                                                 
H 65.081784 43.680426 31.026689                                                 
H 62.741427 39.617305 31.012836                                                 
H 54.614086 66.501728 31.158396                                                 
H 65.082464 57.747854 31.055445                                                 
H 29.609200 64.153737 31.058411                                                 
H 27.259110 60.093325 31.090622                                                 
H 41.798789 71.189556 31.057562                                                 
H 62.737906 61.812143 31.087730                                                 
H 46.488683 71.192219 31.089207                                                 
C 44.091121 38.935360 37.546835                                                 
C 36.014537 43.611056 37.540811                                                 
C 40.055235 41.272087 37.541670                                                 
C 41.401002 38.939795 37.541137                                                 
C 49.484667 38.930941 37.536508                                                 
C 37.361532 41.279613 37.537440                                                 
C 48.136054 41.274395 37.544379                                                 
C 53.528077 41.258780 37.448413                                                 
C 45.443478 41.275382 37.548951                                                 
C 52.183929 43.607067 37.490460                                                 
C 36.020950 48.282801 37.542564                                                 
C 37.367561 45.952506 37.542354                                                 
C 45.445949 36.603521 37.541864                                                 
C 36.021223 52.951018 37.541500                                                 
C 33.316693 48.284431 37.538220                                                 
C 53.530333 45.942531 37.476771                                                 
C 52.179128 38.927428 37.480563                                                 
C 33.317978 52.950905 37.535763                                                 
C 56.236075 45.943068 37.464823                                                 
C 33.315761 43.621158 37.535540                                                 
C 49.484089 43.611156 37.532679                                                 
C 37.367626 55.280406 37.541769                                                 
C 48.126710 36.597431 37.545041                                                 
C 41.407938 43.614746 37.545967                                                 
C 37.370528 50.616496 37.542106                                                 
C 36.016276 57.622706 37.537477                                                 
C 56.230526 41.261971 37.310297                                                 
C 56.242678 50.612240 37.548253                                                 
C 53.533895 50.613563 37.548852                                                 
C 53.538122 55.279302 37.548193                                                 
C 31.973124 50.618025 37.533436                                                 
C 45.454474 59.944188 37.541891                                                 
C 41.412019 57.611836 37.542766                                                 
C 57.578971 43.593392 37.350434                                                 
C 31.974465 45.946200 37.534571                                                 
C 52.192223 57.609397 37.543942                                                 
C 44.098584 43.612863 37.550465                                                 
C 48.146756 59.942684 37.540113                                                 
C 40.065540 45.949930 37.543925                                                 
C 40.057511 59.955971 37.540348                                                 
C 49.496155 57.607253 37.540783                                                 
C 52.180293 48.283775 37.527905                                                 
C 57.586949 48.273948 37.500430                                                 
C 40.066215 55.280576 37.543360                                                 
C 56.244005 55.278589 37.545172                                                 
C 52.187674 52.945277 37.551832                                                 
C 44.105625 57.608196 37.542507                                                 
C 40.034765 36.581119 37.527942                                                 
C 31.977141 55.290070 37.529138                                                 
C 44.099988 62.286494 37.539418                                                 
C 35.997480 38.918502 37.528682                                                 
C 33.318927 57.614031 37.529182                                                 
C 37.363908 59.952811 37.535203                                                 
C 57.591345 52.947768 37.552216                                                 
C 41.407022 62.285944 37.536111                                                 
C 48.137276 45.949247 37.546066                                                 
C 40.066369 50.615943 37.543003                                                 
C 48.148237 55.274394 37.544001                                                 
C 44.067790 34.252032 37.530497                                                 
C 53.529005 36.559279 37.455848                                                 
C 53.541371 59.950824 37.537053                                                 
C 49.481563 48.282898 37.545006                                                 
C 49.497483 62.283728 37.537953                                                 
C 41.414388 52.946587 37.542174                                                 
C 45.454870 55.273983 37.541602                                                 
C 49.492105 52.943262 37.548437                                                 
C 45.445183 45.949001 37.550235                                                 
C 41.412427 48.284358 37.543806                                                 
C 31.962994 41.252393 37.526215                                                 
C 37.371181 36.631781 37.519636                                                 
C 49.495588 34.239933 37.536747                                                 
C 41.434082 34.283557 37.521359                                                 
C 57.582264 57.620607 37.535002                                                 
C 57.554368 38.874476 37.102737                                                 
C 33.306153 38.983737 37.521308                                                 
C 45.456504 64.617736 37.532778                                                 
C 44.106439 52.944951 37.542711                                                 
C 48.140409 50.614857 37.551091                                                 
C 29.254921 50.618258 37.521403                                                 
C 44.103683 48.282892 37.547337                                                 
C 60.323001 48.275077 37.495288                                                 
C 52.191803 62.281514 37.534087                                                 
C 45.449976 50.613485 37.546326                                                 
C 60.315188 43.616197 37.223088                                                 
C 29.251439 45.963113 37.523087                                                 
C 56.237435 59.942899 37.534202                                                 
C 56.202733 36.604527 37.295941                                                 
C 29.253154 55.273662 37.517461                                                 
C 48.140820 64.616384 37.534676                                                 
C 60.321784 52.946299 37.538799                                                 
C 52.135572 34.268465 37.510166                                                 
C 36.002371 62.315241 37.523186                                                 
C 31.967798 59.983585 37.519078                                                 
C 40.042303 64.646850 37.523976                                                 
C 45.489124 31.929035 37.519623                                                 
C 27.965222 52.968375 37.514322                                                 
C 61.611389 45.911604 37.382217                                                 
C 27.964912 48.268964 37.517360                                                 
C 61.614898 50.609514 37.519222                                                 
C 48.071504 31.917660 37.527484                                                 
C 29.236813 41.329273 37.515058                                                 
C 33.311195 62.250270 37.514199                                                 
C 60.280742 38.960639 36.867273                                                 
C 37.376951 64.599457 37.515428                                                 
C 60.309256 57.609653 37.527266                                                 
H 36.326455 34.826205 37.506649                                                 
H 40.389899 32.478316 37.505221                                                 
C 61.591723 41.214543 36.942877                                                 
C 44.079582 66.973329 37.522452                                                 
H 32.261215 37.176557 37.506793                                                 
C 61.606221 55.313234 37.528515                                                 
C 27.949759 43.569253 37.514971                                                 
C 41.444837 66.944022 37.515908                                                 
H 57.242992 34.798601 37.237037                                                 
C 27.951521 57.668971 37.509444                                                 
C 29.241350 59.907673 37.509761                                                 
H 53.181548 32.463304 37.492546                                                 
C 53.548896 64.637583 37.526023                                                 
H 44.433665 30.136467 37.497414                                                 
H 25.879879 52.966624 37.500548                                                 
C 57.582415 62.310248 37.524176                                                 
C 49.516045 66.968449 37.524777                                                 
H 63.695880 45.910160 37.317842                                                 
H 28.210006 39.516732 37.503359                                                 
H 25.880178 48.270117 37.503000                                                 
H 63.704094 50.611631 37.503067                                                 
H 49.125665 30.119892 37.507858                                                 
H 61.295143 37.169101 36.586311                                                 
H 32.266490 64.056146 37.500621                                                 
H 36.334959 66.406771 37.500332                                                 
H 63.659892 41.235219 36.735765                                                 
H 63.693132 55.314922 37.509701                                                 
H 25.867054 43.583843 37.502371                                                 
H 25.867514 57.654097 37.498858                                                 
C 61.604379 60.009004 37.513646                                                 
H 40.404509 68.752433 37.502403                                                 
C 45.507956 69.295549 37.514506                                                 
H 28.213151 61.720080 37.500728                                                 
C 52.157578 66.930891 37.522861                                                 
C 56.229090 64.579559 37.521341                                                 
C 60.306178 62.242936 37.515664                                                 
C 48.091901 69.294195 37.516352                                                 
H 63.688642 59.994151 37.499307                                                 
H 44.451721 71.090934 37.502197                                                 
H 53.199555 68.738230 37.505326                                                 
H 57.268433 66.388324 37.505916                                                 
H 61.333821 64.054801 37.502363                                                 
H 49.146216 71.091889 37.502742                                                 
H 29.517753 37.057793 43.981924                                                 
H 41.709876 30.022176 43.987191                                                 
H 33.585871 34.722546 43.979489                                                 
H 37.652193 32.374837 43.980122                                                 
H 46.402196 30.017976 43.988647                                                 
H 27.172221 41.122653 43.982786                                                 
C 42.764201 31.819615 43.972177                                                 
C 30.547241 38.869578 43.968583                                                 
H 62.668128 39.466064 44.833163                                                 
C 34.625530 36.530893 43.962229                                                 
C 38.698030 34.180397 43.966022                                                 
C 45.348925 31.816022 43.969341                                                 
H 50.457975 32.358215 43.965211                                                 
H 65.007759 43.506511 44.318098                                                 
C 29.255121 41.106562 43.970580                                                 
H 64.993025 57.557650 43.984038                                                 
H 27.174309 45.799402 43.982010                                                 
H 27.170104 59.875579 43.984445                                                 
H 54.535727 34.701132 44.017462                                                 
H 58.595713 37.060658 44.532154                                                 
H 29.519073 63.940296 43.986226                                                 
H 27.170884 50.496998 43.983861                                                 
H 64.987565 52.871520 43.960344                                                 
H 41.705557 70.974999 43.983219                                                 
H 62.639774 61.620937 43.988875                                                 
H 27.172568 55.195978 43.984019                                                 
H 64.989100 48.183988 43.991980                                                 
C 33.272639 38.799001 43.960264                                                 
C 41.341564 34.143240 43.963740                                                 
H 46.399216 70.976025 43.982001                                                 
C 37.307605 36.472300 43.960446                                                 
H 37.652812 68.619350 43.982671                                                 
C 61.627351 41.250894 44.547544                                                 
C 62.917761 43.487718 44.286392                                                 
H 33.586204 66.272198 43.984696                                                 
C 49.415540 34.165484 43.944726                                                 
C 62.908728 57.571956 43.962348                                                 
C 29.260469 45.801380 43.969090                                                 
H 58.584772 63.951949 43.979446                                                 
C 29.253998 59.890742 43.976244                                                 
C 46.778597 34.137538 43.948571                                                 
H 50.449835 68.636979 43.978656                                                 
H 54.519331 66.295582 43.978004                                                 
C 30.551345 43.505053 43.962684                                                 
C 30.547791 62.127474 43.976774                                                 
C 53.486409 36.505596 44.012901                                                 
C 61.614122 59.806953 43.968674                                                 
C 57.546697 38.861737 44.356236                                                 
C 42.760012 69.178026 43.972073                                                 
C 29.257215 50.496968 43.969632                                                 
C 62.901131 52.872927 43.947709                                                 
C 29.259250 55.193771 43.971249                                                 
C 62.904724 48.178013 44.001423                                                 
C 45.343669 69.180784 43.971692                                                 
C 50.816878 36.460736 43.950043                                                 
C 58.887131 41.159582 44.481803                                                 
C 38.696695 66.814561 43.969857                                                 
C 54.854037 38.787799 44.123556                                                 
C 30.548141 48.165013 43.961348                                                 
C 61.613614 45.871389 44.112433                                                 
C 34.626345 64.464887 43.972439                                                 
C 42.719966 36.492710 43.951439                                                 
C 61.608665 55.176217 43.945733                                                 
C 34.620700 41.166527 43.951036                                                 
C 30.550655 57.490925 43.966994                                                 
C 45.409307 50.496338 43.941814                                                 
C 30.547554 52.830248 43.962424                                                 
C 38.668706 38.826186 43.953956                                                 
C 61.612197 50.522258 43.958426                                                 
C 46.754201 52.827714 43.939823                                                 
C 57.543878 62.142622 43.966527                                                 
C 42.715930 50.497092 43.944756                                                 
C 46.755882 48.166348 43.932825                                                 
C 45.405980 36.492852 43.942635                                                 
C 33.273296 62.197042 43.969289                                                 
C 49.407247 66.830294 43.965558                                                 
C 41.337405 66.853540 43.964673                                                 
C 33.279162 43.490564 43.952867                                                 
C 53.476839 64.487852 43.964882                                                 
C 58.888206 59.876978 43.956545                                                 
C 45.406506 55.159346 43.944404                                                 
C 49.446579 52.830400 43.935971                                                 
C 41.369958 48.165888 43.944999                                                 
C 45.410597 45.834430 43.935379                                                 
C 37.306895 64.522408 43.965983                                                 
C 41.367891 52.828298 43.944743                                                 
C 49.447499 48.168979 43.929771                                                 
C 46.771953 66.859597 43.961337                                                 
C 41.363617 38.823057 43.951053                                                 
C 37.318894 41.158038 43.949396                                                 
C 42.716876 45.833089 43.941909                                                 
C 42.712809 55.161235 43.944606                                                 
C 50.792907 50.500456 43.935586                                                 
C 49.457358 38.825280 43.940928                                                 
C 54.851544 62.205139 43.959395                                                 
C 33.274734 48.163502 43.950000                                                 
C 53.499991 41.162844 44.060927                                                 
C 57.543087 43.530207 44.211930                                                 
C 50.809288 64.533938 43.957073                                                 
C 58.887780 45.854663 44.120097                                                 
C 46.764558 38.824717 43.933800                                                 
C 46.759485 43.500944 43.931421                                                 
C 38.672606 48.167237 43.944684                                                 
C 34.619329 45.831204 43.946948                                                 
C 33.274206 52.831951 43.951202                                                 
C 50.795258 45.835144 43.943561                                                 
C 38.671444 52.828734 43.943547                                                 
C 50.793961 55.165944 43.935655                                                 
C 41.368762 43.499036 43.946628                                                 
C 50.807588 41.159030 43.958116                                                 
C 46.752340 57.495217 43.945274                                                 
C 33.278636 57.504954 43.957577                                                 
C 58.883504 55.185782 43.937304                                                 
C 42.716857 41.163876 43.941889                                                 
C 38.670173 43.499192 43.947812                                                 
C 49.453813 43.501532 43.937949                                                 
C 45.409973 41.165487 43.933710                                                 
C 58.890559 50.518078 43.953304                                                 
C 37.323921 50.498007 43.944477                                                 
C 34.620001 59.829590 43.957883                                                 
C 37.324256 45.830385 43.945440                                                 
C 34.616963 50.497819 43.946367                                                 
C 54.841597 43.500806 44.088382                                                 
C 53.488179 50.506266 43.940811                                                 
C 49.446761 57.496913 43.944568                                                 
C 42.712697 64.504094 43.953610                                                 
C 41.363760 57.495834 43.945178                                                 
C 57.539368 57.505139 43.942060                                                 
C 34.618507 55.164371 43.949432                                                 
C 53.491603 45.840925 43.994152                                                 
C 57.541214 48.188137 44.003414                                                 
C 38.665077 62.168841 43.954218                                                 
C 37.322701 55.165376 43.945391                                                 
C 57.543043 52.846029 43.936714                                                 
C 54.836609 48.175965 43.971118                                                 
C 45.396940 64.505115 43.952375                                                 
C 53.492376 55.167949 43.933522                                                 
C 54.840072 52.839366 43.937600                                                 
C 38.666773 57.496428 43.945676                                                 
C 45.401671 59.831934 43.944722                                                 
C 37.316458 59.837631 43.951551                                                 
C 53.491929 59.840410 43.948994                                                 
C 42.710001 59.832185 43.944416                                                 
C 49.446244 62.172643 43.948847                                                 
C 41.357919 62.172882 43.949500                                                 
C 50.797913 59.842138 43.947804                                                 
C 54.841011 57.511315 43.938463                                                 
C 46.753674 62.174247 43.945933                                                 
H 44.381213 29.917927 50.398829                                                 
H 28.133151 39.302102 50.397398                                                 
H 49.071151 29.918375 50.429644                                                 
H 61.258107 36.951263 50.474902                                                 
H 63.607467 41.015429 50.464338                                                 
H 25.790415 43.366203 50.428693                                                 
H 28.134233 61.504506 50.395629                                                 
H 25.789906 57.439683 50.427512                                                 
H 36.256583 34.609880 50.329352                                                 
H 40.329011 32.260874 50.342220                                                 
H 32.189613 36.961459 50.341900                                                 
H 63.614314 50.397317 50.331539                                                 
H 36.258567 66.194919 50.325224                                                 
H 63.610703 59.780396 50.399419                                                 
H 44.383687 70.882533 50.396562                                                 
H 63.610064 45.695738 50.371434                                                 
H 32.188874 63.841618 50.338333                                                 
H 53.125201 32.271851 50.408055                                                 
H 57.194246 34.619357 50.419535                                                 
H 63.610268 55.098394 50.342933                                                 
H 61.263471 63.840707 50.431153                                                 
H 40.330811 68.540591 50.338973                                                 
H 49.074156 70.879458 50.429951                                                 
H 25.803139 52.750992 50.408402                                                 
H 25.803487 48.053985 50.408869                                                 
C 45.434191 31.714112 50.345138                                                 
C 48.019012 31.714533 50.357842                                                 
C 29.162622 41.111802 50.344419                                                 
C 60.229947 38.763664 50.421235                                                 
C 27.872190 43.351495 50.358906                                                 
C 61.524259 41.002642 50.418389                                                 
C 27.871705 57.454718 50.357050                                                 
C 29.162520 59.693991 50.341984                                                 
H 57.195986 66.175279 50.411393                                                 
H 53.127843 68.524058 50.411335                                                 
C 41.369040 34.067839 50.284517                                                 
C 37.299481 36.414575 50.269695                                                 
C 33.233182 38.766120 50.283122                                                 
C 61.528864 59.793861 50.346071                                                 
C 45.436809 69.086268 50.344427                                                 
C 60.234890 62.031143 50.361820                                                 
C 52.082963 34.074674 50.324376                                                 
C 48.021506 69.083807 50.360681                                                 
C 56.153019 36.424340 50.348935                                                 
C 61.524916 45.700459 50.320559                                                 
C 61.530349 50.397975 50.270024                                                 
C 33.233405 62.037932 50.280250                                                 
C 37.300220 64.389339 50.266522                                                 
C 27.886190 48.052558 50.327642                                                 
C 27.885879 52.753422 50.327020                                                 
C 61.526177 55.095887 50.279466                                                 
C 41.370638 66.733967 50.280984                                                 
C 44.005883 34.036610 50.274493                                                 
C 49.441914 34.038266 50.289622                                                 
C 31.888476 41.034618 50.273515                                                 
C 57.505868 38.694068 50.343644                                                 
C 29.173878 45.745817 50.293205                                                 
C 60.230906 43.403579 50.339046                                                 
C 29.173314 55.059797 50.291541                                                 
C 39.966092 36.365296 50.244260                                                 
C 31.888736 59.770021 50.270764                                                 
C 35.924004 38.700027 50.242982                                                 
C 53.473126 36.366932 50.283989                                                 
C 56.156633 64.370646 50.331192                                                 
C 52.085834 66.721273 50.331115                                                 
C 29.176014 50.402779 50.277940                                                 
C 45.376950 50.400666 50.153852                                                 
C 60.233889 57.394622 50.271678                                                 
C 60.239153 48.065695 50.259697                                                 
C 44.007695 66.764259 50.272286                                                 
C 35.924873 62.104386 50.240353                                                 
C 60.239569 52.732516 50.238214                                                 
C 39.967565 64.437157 50.240639                                                 
C 57.510311 62.102152 50.295781                                                 
C 49.444538 66.759613 50.295266                                                 
C 44.030872 52.732306 50.153768                                                 
C 48.069310 50.400192 50.152065                                                 
C 44.030887 48.069536 50.153256                                                 
C 53.476085 64.429125 50.281346                                                 
C 45.376710 55.064353 50.148995                                                 
C 49.416395 52.731665 50.147999                                                 
C 45.382501 36.390516 50.205875                                                 
C 41.337827 52.733420 50.148544                                                 
C 49.415888 48.068444 50.145976                                                 
C 48.066212 36.389420 50.212958                                                 
C 33.239454 43.403264 50.206832                                                 
C 41.337728 48.069597 50.148985                                                 
C 45.376518 45.737152 50.146991                                                 
C 31.897688 45.728420 50.216777                                                 
C 56.160987 41.063453 50.265452                                                 
C 57.503720 43.388229 50.261311                                                 
C 31.897625 55.076517 50.215167                                                 
C 33.239627 57.401032 50.204845                                                 
C 48.070457 55.064916 50.148449                                                 
C 39.990374 50.401643 50.147961                                                 
C 48.069792 45.735793 50.144805                                                 
C 52.115076 38.723052 50.208453                                                 
C 41.331826 38.725813 50.185062                                                 
C 37.286256 41.062160 50.184084                                                 
C 57.506744 57.409774 50.205189                                                 
C 31.894873 50.402433 50.202527                                                 
C 45.383712 64.410050 50.206342                                                 
C 57.511421 48.063702 50.199452                                                 
C 56.163982 59.734651 50.217733                                                 
C 37.286755 59.741835 50.181947                                                 
C 48.068166 64.409648 50.217466                                                 
C 57.512201 52.734449 50.179956                                                 
C 41.332518 62.076609 50.182116                                                 
C 39.989313 55.068764 50.146864                                                 
C 44.028507 57.399923 50.147303                                                 
C 52.113142 52.731533 50.145781                                                 
C 52.112607 48.068283 50.147905                                                 
C 39.989171 45.734590 50.147943                                                 
C 49.421732 38.721636 50.174939                                                 
C 44.028256 43.401871 50.146889                                                 
C 44.024803 38.722961 50.171716                                                 
C 35.938209 43.393082 50.171931                                                 
C 53.463911 41.055526 50.198739                                                 
C 33.239402 48.068168 50.178726                                                 
C 33.239437 52.736675 50.178116                                                 
C 39.981081 41.057140 50.166782                                                 
C 41.334610 57.401845 50.146546                                                 
C 56.165380 45.731386 50.200294                                                 
C 53.461376 50.399556 50.146783                                                 
C 41.334458 43.400884 50.148011                                                 
C 35.938450 57.411105 50.170509                                                 
C 52.117288 62.074894 50.204766                                                 
C 37.293652 50.402031 50.144039                                                 
C 56.168368 50.399327 50.167246                                                 
C 49.417237 43.400285 50.141892                                                 
C 39.981416 59.745964 50.164423                                                 
C 49.418378 57.399976 50.145361                                                 
C 56.167118 55.067661 50.168754                                                 
C 44.025697 62.078636 50.171004                                                 
C 45.377933 41.065020 50.147455                                                 
C 37.290241 45.735781 50.149565                                                 
C 37.290259 55.068238 50.148719                                                 
C 53.460417 45.730479 50.161057                                                 
C 48.070136 41.063846 50.147996                                                 
C 35.943936 48.067170 50.151667                                                 
C 52.114055 43.398639 50.160396                                                 
C 35.943820 52.737229 50.151355                                                 
C 45.378614 59.736300 50.149370                                                 
C 53.466595 59.743189 50.180341                                                 
C 49.423242 62.077868 50.179932                                                 
C 53.461705 55.068851 50.148443                                                 
C 48.070973 59.736665 50.152560                                                 
C 52.115820 57.400875 50.152688                                                 
Li 59.279885 40.577186 40.560516                                                
Li 30.245160 60.990240 40.743480                                                
%ENDBLOCK POSITIONS_ABS                                                         

--------------------------------------------------------------------------------
-------------------------------- END INPUT FILE --------------------------------
--------------------------------------------------------------------------------


 
<<<<<<<<<<<<<<<<<<<<<<<<<<<<<<<<< Full system >>>>>>>>>>>>>>>>>>>>>>>>>>>>>>>>>>
<<<<<<<<<<<<<<<<<<<<<<<<<<< PAW Dataset information >>>>>>>>>>>>>>>>>>>>>>>>>>>
File: ~/pp/paw/c_pbe_abinit.paw; rc = 1.25 bohr; shape type =  3; rshape = 1.25 bohr;
  Atomic number:  6;  ionic charge:  4.000000
    Partial Wave 1: l = 0
    Partial Wave 2: l = 0
    Partial Wave 3: l = 1
    Partial Wave 4: l = 1
  Core charge supplied for Nonlinear Core Corrections
File: ~/pp/paw/h_pbe_abinit.paw; rc = 0.90 bohr; shape type =  3; rshape = 0.90 bohr;
  Atomic number:  1;  ionic charge:  1.000000
    Partial Wave 1: l = 0
    Partial Wave 2: l = 0
File: ~/pp/paw/li_pbe_abinit.paw; rc = 1.42 bohr; shape type =  3; rshape = 1.42 bohr;
  Atomic number:  3;  ionic charge:  3.000000
    Partial Wave 1: l = 0
    Partial Wave 2: l = 0
    Partial Wave 3: l = 0
    Partial Wave 4: l = 1
    Partial Wave 5: l = 1
<<<<<<<<<<<<<<<<<<<<<<<<<<<<<<<<<<<<<<< >>>>>>>>>>>>>>>>>>>>>>>>>>>>>>>>>>>>>>>

-------------------------- Atom counting information ---------------------------
Symbol    Natoms    Nngwfs    Nprojs
  C        484      1936      3872
  H        108       108       216
  Li         2        10        18
.......   ......    ......    ......
Totals:    594      2054      4106
--------------------------------------------------------------------------------

=============================== PSINC grid sizes ===============================
                      Simulation cell:  189 x 189 x 189
                              FFT-box:  117 x 117 x 117
                                  PPD:    7 x   7 x   1
Grid space d1=  0.499927596032a0 (KE cutoff=  30.39413Eh = 827.06648eV)
Grid space d2=  0.499927596032a0 (KE cutoff=  30.39413Eh = 827.06648eV)
Grid space d3=  0.499927596032a0 (KE cutoff=  30.39413Eh = 827.06648eV)
================================================================================
  
WARNING in cell_grid_distribute:
Average of less than one 23-slab per proc, so workload cannot be
equally balanced between procs.

********************* Fourier parallelisation information **********************
       Coarse grid (whole simulation cell) dimensions:    189   189   189
          Real-space ('12') slabs/proc (min max mean):      1     2     1
         Recip-space ('23') slabs/proc (min max mean):      0     1     0
********************************************************************************

********************* Fourier parallelisation information **********************
       Double grid (whole simulation cell) dimensions:    378   378   378
          Real-space ('12') slabs/proc (min max mean):      2     3     2
         Recip-space ('23') slabs/proc (min max mean):      1     2     1
********************************************************************************

Atom SCF Calculation for C  : Z (AE atom) =   6 : Z (PS atom) =   4
Config String: 2s2 2p2
Orbitals (num,occ):  2     2.00 2.00
Orbitals   (num,l):  2        0    1
Real-space Grid (nr,dr,rmax): 1377    0.0065406977    9.0000000000
Spherical Bessel Basis (nsws,lmax,cutoff):   37    2  183.0099912382
Confining potential (l,width,scale):  0    3.0000000000  100.0000000000
Confining potential (l,width,scale):  1    3.0000000000  100.0000000000
  1         -5.4795186097   -1.3252230651    4.5135247139   -1.6370402178
  2         -5.4480873667   -1.4027986130    4.4305957006   -1.6109824140
  3         -5.4553175168   -1.4212842775    4.4102621601   -1.6059044058
  4         -5.4627851864   -1.4247099971    4.4065125496   -1.6052912254
  5         -5.4662317525   -1.4266823431    4.4043718731   -1.6049357348
  6         -5.4679531179   -1.4277361345    4.4032352159   -1.6047498153
  7         -5.4688370531   -1.4282876632    4.4026436340   -1.6046546171
  8         -5.4692962224   -1.4285743132    4.4023378281   -1.6046060967
  9         -5.4695360875   -1.4287229388    4.4021801230   -1.6045813828
 10         -5.4696617783   -1.4287999625    4.4020988354   -1.6045687883
 11         -5.4697277645   -1.4288398966    4.4020569195   -1.6045623641
 12         -5.4697624500   -1.4288606199    4.4020352864   -1.6045590836
 13         -5.4697806994   -1.4288713865    4.4020241086   -1.6045574064
 14         -5.4697903086   -1.4288769875    4.4020183254   -1.6045565478
 15         -5.4697953717   -1.4288799052    4.4020153292   -1.6045561077
 16         -5.4697980412   -1.4288814272    4.4020137746   -1.6045558818
 17         -5.4697994496   -1.4288822223    4.4020129668   -1.6045557657
 18         -5.4698001930   -1.4288826382    4.4020125465   -1.6045557059
 19         -5.4698005858   -1.4288828561    4.4020123274   -1.6045556751
 20         -5.4698007933   -1.4288829704    4.4020122131   -1.6045556592
 21         -5.4698009031   -1.4288830304    4.4020121533   -1.6045556509
 22         -5.4698009612   -1.4288830620    4.4020121220   -1.6045556467
Atom SCF converged after  22 iterations to a total energy of     -5.46980096

Atom SCF Calculation for H  : Z (AE atom) =   1 : Z (PS atom) =   1
Config String: 1s1
Orbitals (num,occ):  1     1.00
Orbitals   (num,l):  1        0
Real-space Grid (nr,dr,rmax): 1377    0.0065406977    9.0000000000
Spherical Bessel Basis (nsws,lmax,cutoff):   37    1  183.0099912382
Confining potential (l,width,scale):  0    3.0000000000  100.0000000000
  1         -0.3687944832   -0.2607687933    0.2820952946   -0.2613406499
  2         -0.4328656062   -0.2590521405    0.2895573663   -0.2701762133
  3         -0.4633856573   -0.2560091938    0.2934204754   -0.2757429988
  4         -0.4750266404   -0.2549676794    0.2946557510   -0.2779015032
  5         -0.4793045155   -0.2546870695    0.2949704774   -0.2786577123
  6         -0.4808919118   -0.2546234645    0.2950332622   -0.2789201171
  7         -0.4814942533   -0.2546130669    0.2950388368   -0.2790132353
  8         -0.4817280090   -0.2546133926    0.2950352123   -0.2790473458
  9         -0.4818204053   -0.2546148712    0.2950319888   -0.2790602287
 10         -0.4818574273   -0.2546158825    0.2950301416   -0.2790652181
 11         -0.4818724050   -0.2546164247    0.2950292178   -0.2790671871
 12         -0.4818785049   -0.2546166894    0.2950287833   -0.2790679748
 13         -0.4818810009   -0.2546168128    0.2950285855   -0.2790682928
 14         -0.4818820255   -0.2546168689    0.2950284970   -0.2790684221
 15         -0.4818824471   -0.2546168940    0.2950284580   -0.2790684748
 16         -0.4818826210   -0.2546169051    0.2950284408   -0.2790684964
 17         -0.4818826928   -0.2546169100    0.2950284333   -0.2790685053
Atom SCF converged after  17 iterations to a total energy of     -0.48188269

Atom SCF Calculation for Li : Z (AE atom) =   3 : Z (PS atom) =   3
Config String: 1s2 2s1 2p0
Orbitals (num,occ):  3     2.00 1.00 0.00
Orbitals   (num,l):  3        0    0    1
Real-space Grid (nr,dr,rmax): 1377    0.0065406977    9.0000000000
Spherical Bessel Basis (nsws,lmax,cutoff):   37    2  183.0099912382
Confining potential (l,width,scale):  0    3.0000000000  100.0000000000
Confining potential (l,width,scale):  1    3.0000000000  100.0000000000
  1         -6.1314629607   -4.7499359229    2.5388576516   -1.0480231927
  2         -7.0450508208   -4.1702030791    2.9795337774   -1.2623862962
  3         -7.3518474013   -3.9564527259    3.2037296734   -1.3880788964
  4         -7.4613386962   -3.8947565558    3.2914990517   -1.4402825036
  5         -7.5001516047   -3.8789668192    3.3221434609   -1.4602864917
  6         -7.5136113510   -3.8755528126    3.3322769691   -1.4678164580
  7         -7.5181182589   -3.8751724459    3.3354399675   -1.4706394447
  8         -7.5195538340   -3.8753832694    3.3363346353   -1.4716958846
  9         -7.5199777516   -3.8756112412    3.3365363545   -1.4720903919
 10         -7.5200869011   -3.8757624244    3.3365501247   -1.4722372325
 11         -7.5201065703   -3.8758489541    3.3365264569   -1.4722916218
 12         -7.5201049812   -3.8758952022    3.3365040630   -1.4723116262
 13         -7.5201006323   -3.8759190019    3.3364892955   -1.4723189110
 14         -7.5200980758   -3.8759285770    3.3364824548   -1.4723210036
 15         -7.5200963811   -3.8759342877    3.3364781194   -1.4723220111
 16         -7.5200953120   -3.8759376792    3.3364754203   -1.4723224913
 17         -7.5200946593   -3.8759396866    3.3364737619   -1.4723227171
 18         -7.5200942701   -3.8759408718    3.3364727530   -1.4723228213
 19         -7.5200940419   -3.8759415700    3.3364721439   -1.4723228682
 20         -7.5200939099   -3.8759419808    3.3364717784   -1.4723228886
 21         -7.5200938343   -3.8759422222    3.3364715600   -1.4723228969
Atom SCF converged after  21 iterations to a total energy of     -7.52009383

Determining parallel strategy ...
... using space-filling curve
... NGWF load balancing: max     16;  min     12;  average     13
... Projector load balancing: max     32;  min     24;  average     26
... done
Calculating Ewald energy ...
              Ewald: real-space energy =   34821.821603
        Ewald: reciprocal-space energy =   33198.845435
         Ewald: (sum_charge)**2 Energy =    2645.533895
         Ewald: (sum_charge**2) Energy =     241.492451
                          Ewald Energy =   65133.640693
Basis initialisation ...... NGWF spheres initialised
... Projector spheres initialised
... NGWF tight boxes initialised
... Projector tight boxes initialised
... Tight-boxes gathered
... NGWF basis size (local,global):     258843  41456506
... PAW projector initialisation
... done

============================= Charge Augmentation ==============================
                           Aug box size:   13 x  13 x  13
================================================================================

========================== Sparse matrix information ===========================
                        Overlap matrix filling:  39.11%
                        Density kernel filling: 100.00%
              NGWF-Proj overlap matrix filling:  11.04%
                    Aug Overlap matrix filling:  42.91%
                    Hamiltonian matrix filling:  42.91%
                  NGWF diagonal matrix filling:   0.19%
                             KS matrix filling: 100.00% 
                           KSKS matrix filling: 100.00% 
================================================================================

Sparse matrix initialisation ... done
NGWF initialisation ...... done
============ Calculation of NGWF S^-1 using Hotelling algorithm ================ 
         Iteration  |  Frobenius norm and Maximum abs value    (of I-S*S_n^-1)   
               1       0.44879643E+02     0.99450130E+00
               2       0.44466073E+02     0.98905777E+00
               3       0.43713143E+02     0.97832816E+00
               4       0.42449713E+02     0.95744986E+00
               5       0.40583893E+02     0.91771164E+00
               6       0.38200936E+02     0.84474391E+00
               7       0.35410064E+02     0.76548868E+00
               8       0.32330049E+02     0.74249080E+00
               9       0.29289358E+02     0.72791185E+00
              10       0.26334779E+02     0.70926891E+00
              11       0.22891186E+02     0.68987387E+00
              12       0.18334201E+02     0.65692038E+00
              13       0.12518748E+02     0.60046778E+00
              14       0.64545080E+01     0.50656726E+00
              15       0.20841085E+01     0.36393273E+00
              16       0.37269269E+00     0.18918908E+00
              17       0.73948170E-01     0.51320392E-01
              18       0.54263946E-02     0.37803129E-02
              19       0.29445348E-04     0.20513322E-04
              20       0.86702869E-09     0.60402527E-09
              21       0.35513796E-13     0.19984014E-14
================================================================================
Calculating core density ...
================================= Core Density =================================
               Core den box size:   21 x  21 x  21
================================================================================
 ... done
Up spin density kernel initialisation ...... done
Down spin density kernel initialisation ...... done

Writing density kernel to file "2/592nano.dkn" ... done

>>> Optimising kernel for current NGWFs:

--------------------------- Ensemble-DFT optimisation --------------------------
Running ScaLAPACK on  160 processor(s).

--------------------------------------------------------------------------------
  Iter                              Commutator    Free_energy(A=E-TS)     DeltaA
#    0                          0.000583923151   -2835.39901469662755  -2.84E+03

Step                       =       0.381966011250
Energy (E)                 =   -2835.389647771410
Entropy (-TS)              =      -0.009366925218
Free energy (A=E-TS)       =   -2835.399014696628
Est. 0K Energy 0.5*(E+A)   =   -2835.394331234019
Residual Non-orthogonality =       0.000000000000
Residual N_electrons       =      -0.000000000000

Spin          Integrated_Ne            Fermi_level     Delta_Fermi_level
   1      1025.000000000000        -0.255856278737             -2.56E-01
   2      1025.000000000000        -0.255856278737             -2.56E-01

                           Spin 1           |                 Spin 2           |
     Orb |    H-eigenvalues     Occupancies |    H-eigenvalues     Occupancies |
       1 |    -1.9018695717    1.0000000000 |    -1.9018695717    1.0000000000 | 
                          ------                             ------
    1021 |    -0.2862865524    0.9999328907 |    -0.2862865524    0.9999328907 | 
    1022 |    -0.2861677073    0.9999303245 |    -0.2861677073    0.9999303245 | 
    1023 |    -0.2809904455    0.9996427589 |    -0.2809904455    0.9996427589 | 
    1024 |    -0.2727378592    0.9951830307 |    -0.2727378592    0.9951830307 | 
    1025 |    -0.2592093164    0.7424622242 |    -0.2592093164    0.7424622242 | 
                 - Gap at zero temperature - |     - Gap at zero temperature -
                  Finite temp. Fermi level   |      Finite temp. Fermi level  
    1026 |    -0.2512028276    0.1870271824 |    -0.2512028276    0.1870271824 | 
    1027 |    -0.2452552668    0.0339759783 |    -0.2452552668    0.0339759783 | 
    1028 |    -0.2433235066    0.0187517829 |    -0.2433235066    0.0187517829 | 
    1029 |    -0.2414904877    0.0105988094 |    -0.2414904877    0.0105988094 | 
    1030 |    -0.2388756005    0.0046692607 |    -0.2388756005    0.0046692607 | 
                          ------                             ------
    2054 |     0.5617660975    0.0000000000 |     0.5617660975    0.0000000000 | 

                            |  Abs_value |  Threshold | Converged
     Delta_Free_energy/atom |   4.77E+00 |   1.00E-06 |        No
     Delta_Energy/atom      |   4.77E+00 |   1.00E-04 |        No
     Delta_Entropy/atom     |   1.58E-05 |   1.00E-04 |       Yes
     Commutator             |   5.84E-04 |   1.00E-05 |        No
     Delta_Fermi_level      |   2.56E-01 |   1.00E-03 |        No

  Line search of the free energy minimum:
  Step_type        Step             Free_energy   Predicted_free_energy
.   Initial    0.000000    -2835.39901469662755

Performing  Pulay mixing of Hamiltonian with coefficients:
                        Spin 1               Spin 2
                1.000000000000       1.000000000000
Lambda-->       7.479872215496       7.479872215601     ... done

.    Trial1    0.381966    -2835.55191943945056

Performing  Pulay mixing of Hamiltonian with coefficients:
                        Spin 1               Spin 2
                1.000000000000       1.000000000000
Lambda-->       7.479872215496       7.479872215601     ... done

.    Trial2    0.618034    -2835.15686512536968

Performing  Pulay mixing of Hamiltonian with coefficients:
                        Spin 1               Spin 2
                1.000000000000       1.000000000000
Lambda-->       7.479872215496       7.479872215601     ... done

. Quadratic    0.250634    -2835.59541264546351    -2835.60979508037781

--------------------------------------------------------------------------------
  Iter                              Commutator    Free_energy(A=E-TS)     DeltaA
#    1                          0.000338932955   -2835.59541264546351  -1.96E-01

Step                       =       0.250633563177
Energy (E)                 =   -2835.583204044587
Entropy (-TS)              =      -0.012208601273
Free energy (A=E-TS)       =   -2835.595412645464
Est. 0K Energy 0.5*(E+A)   =   -2835.589308345025
Residual Non-orthogonality =       0.000000000000
Residual N_electrons       =       0.000000000396

Spin          Integrated_Ne            Fermi_level     Delta_Fermi_level
   1      1025.000000000824        -0.240815721006              1.50E-02
   2      1025.000000000822        -0.240815721008              1.50E-02

                           Spin 1           |                 Spin 2           |
     Orb |    H-eigenvalues     Occupancies |    H-eigenvalues     Occupancies |
       1 |    -1.9460036809    1.0000000000 |    -1.9460036809    1.0000000000 | 
                          ------                             ------
    1021 |    -0.2713830755    0.9999357335 |    -0.2713830755    0.9999357335 | 
    1022 |    -0.2701511482    0.9999051762 |    -0.2701511482    0.9999051762 | 
    1023 |    -0.2646521423    0.9994619102 |    -0.2646521423    0.9994619102 | 
    1024 |    -0.2562718324    0.9924651589 |    -0.2562718324    0.9924651589 | 
    1025 |    -0.2424064311    0.6230012248 |    -0.2424064311    0.6230012248 | 
                 - Gap at zero temperature - |     - Gap at zero temperature -
                  Finite temp. Fermi level   |      Finite temp. Fermi level  
    1026 |    -0.2359495906    0.1770297139 |    -0.2359495906    0.1770297139 | 
    1027 |    -0.2349749035    0.1365335850 |    -0.2349749035    0.1365335850 | 
    1028 |    -0.2311546782    0.0451865648 |    -0.2311546782    0.0451865648 | 
    1029 |    -0.2274044433    0.0142738874 |    -0.2274044433    0.0142738874 | 
    1030 |    -0.2237316055    0.0045198912 |    -0.2237316055    0.0045198912 | 
                          ------                             ------
    2054 |     0.5760414737    0.0000000000 |     0.5760414737    0.0000000000 | 

                            |  Abs_value |  Threshold | Converged
     Delta_Free_energy/atom |   3.31E-04 |   1.00E-06 |        No
     Delta_Energy/atom      |   3.26E-04 |   1.00E-04 |        No
     Delta_Entropy/atom     |   4.78E-06 |   1.00E-04 |       Yes
     Commutator             |   3.39E-04 |   1.00E-05 |        No
     Delta_Fermi_level      |   1.50E-02 |   1.00E-03 |        No

  Line search of the free energy minimum:
  Step_type        Step             Free_energy   Predicted_free_energy
.   Initial    0.000000    -2835.59541264546351

Performing  Pulay mixing of Hamiltonian with coefficients:
                        Spin 1               Spin 2
                1.000000000000       1.000000000000
Lambda-->       3.048350686917       3.048350685589     ... done

.    Trial1    0.250634    -2835.63208956234757

Performing  Pulay mixing of Hamiltonian with coefficients:
                        Spin 1               Spin 2
                1.000000000000       1.000000000000
Lambda-->       3.048350686917       3.048350685589     ... done

.    Trial2    0.536866    -2835.36784644101135

Performing  Pulay mixing of Hamiltonian with coefficients:
                        Spin 1               Spin 2
                1.000000000000       1.000000000000
Lambda-->       3.048350686917       3.048350685589     ... done

. Quadratic    0.162045    -2835.64927568728672    -2835.64772365348517

[...]
 C   393 -- C   402       -0.10      0.00      5.39998
 C   562 -- C   567       -0.10      0.00      5.40015
 C   195 -- C   203       -0.10     -0.00      5.40035
 C    37 -- C    41       -0.10      0.00      5.40039
 C   164 -- C   176       -0.09      0.00      5.40075
 C   158 -- C   210       -0.09     -0.00      5.40085
 C   385 -- C   397       -0.10     -0.00      5.40097
 C   165 -- C   219       -0.09     -0.00      5.40159
 C   414 -- C   420       -0.09      0.00      5.40241
 C   171 -- C   208       -0.09     -0.00      5.40317
 C   365 -- C   409       -0.09     -0.00      5.40321
 C   352 -- C   393       -0.09      0.00      5.40356
 C   152 -- C   199       -0.09     -0.00      5.40358
 C   194 -- C   202       -0.09     -0.00      5.40367
 C   165 -- C   169       -0.10      0.00      5.40400
 C   201 -- C   242       -0.09      0.00      5.40444
 C   203 -- C   240       -0.09      0.00      5.40475
 C   355 -- C   401       -0.09      0.00      5.40480
 C   191 -- C   232       -0.09      0.00      5.40508
 C   363 -- C   392       -0.09     -0.00      5.40520
 C   391 -- C   440       -0.09     -0.00      5.40541
 C   154 -- C   196       -0.09     -0.00      5.40575
 C   381 -- C   422       -0.09     -0.00      5.40585
 C   183 -- C   227       -0.09     -0.00      5.40594
 C   395 -- C   438       -0.09     -0.00      5.40609
 C   164 -- C   175       -0.09     -0.00      5.40614
 C    51 -- C    88       -0.09      0.00      5.40631
 C    50 -- C    89       -0.09      0.00      5.40640
 C    46 -- C    78       -0.09      0.00      5.40661
 C   190 -- C   191       -0.09      0.00      5.40673
 C   365 -- C   396       -0.09      0.00      5.40694
 C   517 -- C   549       -0.09     -0.00      5.40705
 C   197 -- C   227       -0.09      0.00      5.40707
 C   513 -- C   551       -0.09     -0.00      5.40739
 C   507 -- C   529       -0.09      0.00      5.40743
 C   381 -- C   416       -0.09     -0.00      5.40759
 C   516 -- C   547       -0.09     -0.00      5.40760
 C    42 -- C    80       -0.09     -0.00      5.40788
 C   504 -- C   543       -0.09     -0.00      5.40793
 C    41 -- C    77       -0.09      0.00      5.40795
 C   515 -- C   552       -0.09      0.00      5.40803
 C   237 -- C   266       -0.09     -0.00      5.40812
 C   506 -- C   542       -0.09     -0.00      5.40819
 C   523 -- C   550       -0.09      0.00      5.40833
 C    59 -- C    86       -0.09     -0.00      5.40874
 C    45 -- C    70       -0.09      0.00      5.40877
 C   510 -- C   536       -0.09      0.00      5.40878
 C   327 -- C   360       -0.09     -0.00      5.40882
 C    60 -- C    83       -0.09      0.00      5.40901
 C    44 -- C    76       -0.09     -0.00      5.40920
 C   510 -- C   533       -0.09     -0.00      5.40933
 C    66 -- C    86       -0.09     -0.00      5.40967
 C    43 -- C    70       -0.09     -0.00      5.40970
 C   419 -- C   427       -0.09     -0.00      5.40983
 C   523 -- C   548       -0.09      0.00      5.40989
 C   234 -- C   266       -0.09      0.00      5.41002
 C    57 -- C    83       -0.09     -0.00      5.41014
 C   156 -- C   167       -0.09      0.00      5.41074
 C   351 -- C   370       -0.09      0.00      5.41100
 C   161 -- C   196       -0.09     -0.00      5.41125
 C   507 -- C   534       -0.09      0.00      5.41131
 C   327 -- C   358       -0.09      0.00      5.41241
 C   395 -- C   432       -0.09      0.00      5.41243
 C   202 -- C   229       -0.09      0.00      5.41288
 C   200 -- C   240       -0.09     -0.00      5.41316
 C   168 -- C   199       -0.09     -0.00      5.41356
 C   355 -- C   374       -0.09      0.00      5.41378
 C   191 -- C   238       -0.09      0.00      5.41402
 C   363 -- C   408       -0.09      0.00      5.41403
 C   224 -- C   242       -0.09      0.00      5.41429
 C   391 -- C   424       -0.09     -0.00      5.41430
 C   351 -- C   393       -0.09     -0.00      5.41491
 C   506 -- C   530       -0.09     -0.00      5.41558
 C    58 -- C    80       -0.09     -0.00      5.41560
 C    69 -- C    89       -0.09     -0.00      5.41586
 C   515 -- C   537       -0.09     -0.00      5.41603
 C    63 -- C    88       -0.09     -0.00      5.41609
 C   517 -- C   546       -0.09      0.00      5.41632
 C    48 -- C    78       -0.09      0.00      5.41658
 C   504 -- C   526       -0.09      0.00      5.41660
 C   516 -- C   544       -0.09     -0.00      5.41721
 C   221 -- C   238       -0.09      0.00      5.41795
 C    47 -- C    76       -0.09      0.00      5.41826
 C   513 -- C   535       -0.09      0.00      5.41861
 C    56 -- C    77       -0.09      0.00      5.41935
 C   175 -- C   208       -0.09      0.00      5.42538
 C   207 -- C   219       -0.09     -0.00      5.42782
 C   182 -- C   229       -0.09      0.00      5.42852
 C   359 -- C   376       -0.09     -0.00      5.43122
 C   253 -- C   269       -0.09      0.00      5.43427
 C   373 -- C   384       -0.09      0.00      5.43455
 C   217 -- C   233       -0.09     -0.00      5.43539
 C   497 -- C   498       -0.09     -0.00      5.43605
 C   324 -- C   340       -0.09      0.00      5.43621
 C   236 -- C   241       -0.09      0.00      5.43624
 C   257 -- C   270       -0.09      0.00      5.43647
 C   514 -- C   519       -0.09      0.00      5.43689
 C   503 -- C   505       -0.09     -0.00      5.43693
 C   361 -- C   371       -0.08      0.00      5.43694
 C   325 -- C   337       -0.09      0.00      5.43706
 C    91 -- C    93       -0.09      0.00      5.43712
 C    92 -- C    95       -0.09     -0.00      5.43723
 C   499 -- C   501       -0.09      0.00      5.43735
 C    75 -- C    81       -0.09     -0.00      5.43759
 C    94 -- C    96       -0.09     -0.00      5.43826
 C   512 -- C   518       -0.09     -0.00      5.43869
 C    87 -- C    90       -0.09     -0.00      5.43885
 C    74 -- C    79       -0.09     -0.00      5.43905
 C   500 -- C   502       -0.09     -0.00      5.44108
 C   354 -- C   394       -0.08     -0.00      5.45245
 C   352 -- C   356       -0.08      0.00      5.45631
 C   222 -- C   232       -0.07      0.00      5.48822
 C   416 -- Li  594       -0.06      0.00      5.55146
 H   305 -- Li  593       -0.02      0.00      5.56510
 C   200 -- Li  594       -0.06     -0.00      5.58377
 H   276 -- Li  593       -0.01      0.00      5.60987
 C   408 -- Li  594       -0.05     -0.00      5.62846
=============================================================


============== Orbital energy and occupancy information for spin 1 =============

      Total number of orbitals:    2054
        Occupancy sum (kernel):    1024.999999977
   Occupancy sum (eigenvalues):    1024.999999977
                 HOMO-LUMO gap:       0.002519896 Eh
                 Mid-gap level:      -0.107772779 Eh

                        Orbital | Energy (Eh) | Occupancy
                            1    -1.870331171   1.0000000
                        .......   ...........   .........
                         1017    -0.151047260   0.9999901
                         1018    -0.150433127   0.9999880
                         1019    -0.147585549   0.9999748
                         1020    -0.147072415   0.9999701
                         1021    -0.143431043   0.9999091
                         1022    -0.142044653   0.9998631
                         1023    -0.141677049   0.9998459
                         1024    -0.132614174   0.9973088
                         1025    -0.115681838   0.6363251
                         1026    -0.109032727   0.1736882
                        ....... -- gap at 0K -- .........
                         1027    -0.106512831   0.0876264
                         1028    -0.104352354   0.0453822
                         1029    -0.103742715   0.0384396
                         1030    -0.099194611   0.0091753
                         1031    -0.097495397   0.0054469
                         1032    -0.094978743   0.0024249
                         1033    -0.093064307   0.0013345
                         1034    -0.091358044   0.0007799
                         1035    -0.091208294   0.0007295
                         1036    -0.090972339   0.0006775
                        .......   ...........   .........
                         2054     0.758256456   0.0000000

================================================================================

============== Orbital energy and occupancy information for spin 2 =============

      Total number of orbitals:    2054
        Occupancy sum (kernel):    1025.000000024
   Occupancy sum (eigenvalues):    1025.000000024
                 HOMO-LUMO gap:       0.006649111 Eh
                 Mid-gap level:      -0.112357283 Eh

                        Orbital | Energy (Eh) | Occupancy
                            1    -1.870331171   1.0000000
                        .......   ...........   .........
                         1016    -0.156400728   0.9999971
                         1017    -0.151047260   0.9999901
                         1018    -0.150433127   0.9999880
                         1019    -0.147585550   0.9999748
                         1020    -0.147072414   0.9999701
                         1021    -0.143431042   0.9999091
                         1022    -0.142044652   0.9998631
                         1023    -0.141677049   0.9998459
                         1024    -0.132614174   0.9973088
                         1025    -0.115681838   0.6363251
                        ....... -- gap at 0K -- .........
                         1026    -0.109032727   0.1736882
                         1027    -0.106512831   0.0876264
                         1028    -0.104352354   0.0453822
                         1029    -0.103742715   0.0384396
                         1030    -0.099194611   0.0091753
                         1031    -0.097495397   0.0054469
                         1032    -0.094978743   0.0024249
                         1033    -0.093064307   0.0013345
                         1034    -0.091358044   0.0007799
                         1035    -0.091208294   0.0007295
                        .......   ...........   .........
                         2054     0.758256456   0.0000000

================================================================================

===================== Writing canonical molecular orbitals =====================
    Spin 1
| Orbital  Energy (eV)  Norm     |
| HOMO     -2.96693148  1.000000 | Writing "2/592nano_HOMO_UP.cube" ... done
Writing "2/592nano_HOMO_UP.dx" ... done
| LUMO     -2.89836162  1.000000 | Writing "2/592nano_LUMO_UP.cube" ... done
Writing "2/592nano_LUMO_UP.dx" ... done
================================================================================

===================== Writing canonical molecular orbitals =====================
    Spin 2
| Orbital  Energy (eV)  Norm     |
| HOMO     -3.14786299  1.000000 | Writing "2/592nano_HOMO_DN.cube" ... done
Writing "2/592nano_HOMO_DN.dx" ... done
| LUMO     -2.96693147  1.000000 | Writing "2/592nano_LUMO_DN.cube" ... done
Writing "2/592nano_LUMO_DN.dx" ... done
================================================================================

================== Local Density of States (LDOS) calculation ==================
Writing "2/592nano_UP_LDOS.txt" ...  done
================================================================================

================== Local Density of States (LDOS) calculation ==================
Writing "2/592nano_DN_LDOS.txt" ...  done
================================================================================
 
=============== Density of States (DOS) calculation for UP spin ================
Writing "2/592nano_UP_DOS.txt" ...  done
================================================================================
 
============== Density of States (DOS) calculation for DOWN spin ===============
Writing "2/592nano_DN_DOS.txt" ...  done
================================================================================
 
Writing bands to file "2/592nano.val_bands" ... done
 
================ Projected Density of States (pDOS) calculation ================
 
Constructing AM resolved functions  ...... done
Writing NGWF plot files in formats: CUBE DX ...  done
 
Performing overlap integrals ...  done
 
Computing pDOS weights ...  done
 
All bands spilling parameter =   4.15 %
Occupancy-weighted spilling parameter =   0.98 %
 
 => Outputting data for OptaDOS <=
 
Writing pDOS weights to file "2/592nano.val_pdos_bin" ... done
 
Writing band gradients to file "2/592nano.val_dome_bin" ... done
 
Writing Castep output cell file to "2/592nano-out.cell" ... done
 
 => Computing Gaussian smeared pDOS for UP spin<= 
Writing "2/592nano_UP_PDOS.txt" ...  done
 
 => Computing Gaussian smeared pDOS for DOWN spin<= 
Writing "2/592nano_DN_PDOS.txt" ...  done
 
 => Computing Occupancy-weighted Gaussian smeared pDOS for UP spin<= 
Writing "2/592nano_occ_UP_PDOS.txt" ...  done
  => Band centres for UP spin channel: 
 S band centre of group 1:  -13.945575 eV
 P band centre of group 1:   -7.621995 eV
  Band centres for UP spin channel done. <= 
  => Integrated number of electrons in each AM band for UP spin channel: 
 S num electrons of group 1:  269.011238
 P num electrons of group 1:  745.961297
  Integrated number of electrons for UP spin channel done. <= 
 
 => Computing Occupancy-weighted Gaussian smeared pDOS for DOWN spin<= 
Writing "2/592nano_occ_DN_PDOS.txt" ...  done
  => Band centres for DOWN spin channel: 
 S band centre of group 1:  -13.945575 eV
 P band centre of group 1:   -7.621995 eV
  Band centres for DOWN spin channel done. <=
  => Integrated number of electrons in each AM band for DOWN spin channel: 
 S num electrons of group 1:  269.011238
 P num electrons of group 1:  745.961297
  Integrated number of electrons for DOWN spin channel done. <=
================================================================================

------------------------------ TIMING INFORMATION ------------------------------
AVERAGE TIME:    6387.077s on    160 proc(s)                                    
TOTAL TIME:      6387.077s on    160 proc(s)                                    
================= AVERAGE TIMINGS FROM ALL PROCS (CUMULATIVE) ==================
|| TAG                                    #calls    cpu time   %total  Gflops ||
|| work_imbalance                       :     1        0.00s   0.000%  ------ ||
|| paw_tcore_density                    :     1        0.01s   0.000%  ------ ||
|| paw_dij_hartree                      :   219        0.01s   0.000%  ------ ||
|| sparse_set_to_garbage                :   264        0.01s   0.000%  ------ ||
|| paw_sphere_density_on_grid           :     1        0.01s   0.000%  ------ ||
|| basis_extract_function_from_box      :   385        0.02s   0.000%  ------ ||
|| ngwfs_initialise_from_radial         :     2        0.04s   0.001%  ------ ||
|| ewald_calculate_energy               :     1        0.11s   0.002%  ------ ||
|| density_init_guess_real              :     1        0.22s   0.003%  ------ ||
|| paw_dataset_init                     :     3        0.35s   0.005%  ------ ||
|| paw_tcore_hartree_on_grid            :     1        0.39s   0.006%  ------ ||
|| pseudo_make_structure_factor         :     1        0.41s   0.006%  ------ ||
|| sparse_init                          :     1        0.97s   0.015%  ------ ||
|| dense_normal_eigensolve              :     1        1.21s   0.019%  ------ ||
|| augmentation_screen_dij              :   153        1.80s   0.028%  ------ ||
|| restart_kernel_write                 :    16        2.03s   0.032%  ------ ||
|| paw_species_calc_proj_prec_mat       :     1        2.36s   0.037%  ------ ||
|| sparse_embed_hotelling_invert_embed  :    30        5.20s   0.081%  ------ ||
|| sw_init                              :     1        7.00s   0.110%  ------ ||
|| basis_copy_function_to_box           :  6046        7.64s   0.120%  ------ ||
|| hartree_on_grid                      :   148        8.14s   0.127%  ------ ||
|| ngwf_gradient_coeffs                 :    15        8.18s   0.128%  ------ ||
|| paw_dij_xc                           :   219       10.01s   0.157%  ------ ||
|| fourier_apply_box_pair               :   973       10.54s   0.165%  2.437k ||
|| augmentation_density_on_grid         :   148       19.82s   0.310%  ------ ||
|| sparse_trace                         :  4628       20.32s   0.318%  ------ ||
|| aug_nonlocal_mat                     :   204       22.93s   0.359%  ------ ||
|| projectors_init_fftbox_recip         :    62       25.41s   0.398%  ------ ||
|| integrals_kinetic                    :    30       37.02s   0.580%  ------ ||
|| projectors_func_ovlp_box             :    31       44.25s   0.693%  ------ ||
|| basis_dot_function_with_box          : 1.645M      44.96s   0.704%  ------ ||
|| function_ops_brappd_ketppd           :    62       47.39s   0.742%  ------ ||
|| eigenstates_pdos                     :     1       72.25s   1.131%  ------ ||
|| hamiltonian_energy_components        :     3       72.70s   1.138%  ------ ||
|| dense_eigensolve                     :   226       95.68s   1.498%  ------ ||
|| fourier_apply_cell_forward           :  5440      117.82s   1.845% 160.708 ||
|| sparse_product                       :  5696      117.83s   1.845%  ------ ||
|| cell_grid_deposit_box_real           :  9556      133.71s   2.093%  ------ ||
|| fourier_apply_cell_backward          :  6029      138.56s   2.169% 151.446 ||
|| integrals_locpot_mat_els_batch       :   127      140.06s   2.193%  ------ ||
|| eigenstates_calculate                :     1      141.50s   2.215%  ------ ||
|| basis_add_function_to_box            : 4.290M     144.43s   2.261%  ------ ||
|| density_fftbox_deposit_to_cell       :  4736      239.19s   3.745%  ------ ||
|| density_batch_row_sums               :   148      260.16s   4.073%  ------ ||
|| edft_diag_ngwf_ham                   :   224      279.64s   4.378%  ------ ||
|| cell_grid_extract_box_real           :  3756      310.01s   4.854%  ------ ||
|| xc_energy_potential                  :   147      319.79s   5.007%  ------ ||
|| restart_ngwfs_tightbox_output        :    14      333.39s   5.220%  ------ ||
|| density_fftbox_interpolate_multiply  :  4736      392.88s   6.151%  ------ ||
|| fourier_apply_box                    : 21054      422.60s   6.617%  4.178k ||
|| potential_apply_to_ngwf_batch        :   127      429.57s   6.726%  ------ ||
|| nlxc_vdw_energy                      :   294      437.46s   6.849%  ------ ||
|| edft_apply_smearing_operator         :   112      437.87s   6.856%  ------ ||
|| projectors_gradient_batch            :    15      551.98s   8.642%  ------ ||
|| integrals_locpot_dbl_grid            :   127      573.56s   8.980%  ------ ||
|| density_batch_interp_deposit         :   148      785.66s  12.301%  ------ ||
|| projectors_grad_precond_batch        :    15      801.33s  12.546%  ------ ||
|| properties_calculate                 :     1      949.09s  14.860%  ------ ||
|| density_on_dbl_grid                  :   148     1069.22s  16.740%  ------ ||
|| hamiltonian_lhxc_calculate           :   143     1428.50s  22.366%  ------ ||
|| ngwf_gradient_build_batch            :    15     1514.88s  23.718%  ------ ||
|| ngwf_gradient_batch                  :    15     1649.16s  25.820%  ------ ||
|| ngwf_gradient_lnv                    :    15     1667.27s  26.104%  ------ ||
|| edft_calculate                       :    15     2360.96s  36.965%  ------ ||
|| ngwf_cg_optimise                     :     1     5417.27s  84.816%  ------ ||
|| total_time                           :     1     6387.08s 100.000%  ------ ||
================================================================================
Overhead of generating timer report: 
- 0 ms averaging over threads,
- 27 ms ensuring consistency across MPI ranks,
- 0 ms printing in order.

Job completed: 29-06-2021 13:08 (+0100)

