 +---------------------------------------------------------------+
 |                                                               |
 |        ####### #     # ####### ####### ####### ######         |
 |        #     # ##    # #          #    #       #     #        |
 |        #     # # #   # #          #    #       #     #        |
 |        #     # #  #  # #####      #    #####   ######         |
 |        #     # #   # # #          #    #       #              |
 |        #     # #    ## #          #    #       #              |
 |        ####### #     # #######    #    ####### #              |
 |                                                               |
 |        Linear-Scaling Ab Initio Total Energy Program          |
 |                                                               |
 |          Release for academic collaborators of ODG            |
 |                                             Version 5.3.2.12  |
 |                                                               |
 +---------------------------------------------------------------+
 |                                                               |
 |  Authors:                                                     |
 |  Jacek Dziedzic, Peter D. Haynes, Nicholas D. M. Hine,        |
 |  Arash. A. Mostofi, Mike C. Payne and Chris-Kriton Skylaris   |
 |                                                               |
 |  Contributors:                                                |
 |  J. Aarons, L. Andrinopoulos, P. W. Avraam, R. A. Bell,       |
 |  A. Bhandari, G. A. Bramley, R. J. Charlton, S. J. Clark,     |
 |  R. J. Clements, G. C. Constantinescu, F. Corsetti,           |
 |  N. Corsini, O. Dieguez, S. M. M. Dubois, K. K. B. Duff,      |
 |  J. M. Escartin, A. Greco, H. Helal, Q. O. Hill, L. P. Lee,   |
 |  J.-H. Li, E. B. Linscott, G. Moynihan, D. D. O`Regan,        |
 |  O. K. Okan, M. J. S. Phipps, C. J. Pickard,                  |
 |  J. C. A. Prentice, M. I. J. Probert, L. E. Ratcliff,         |
 |  M. Robinson, A. Ruiz Serrano, J. S. Spencer, E. W. Tait,     |
 |  G. Teobaldi, D. Turban, V. Vitale, K. A. Wilkinson,          |
 |  C. Weber, J. C. Womack, N. Yeung and T. J. Zuehlsdorff       |
 |                                                               |
 |                                   Copyright (c) 2004-2020     |
 |                                                               |
 |  Please cite:                                                 |
 |  "Introducing ONETEP: Linear-scaling density functional       |
 |   simulations on parallel computers".                         |
 |   C.-K. Skylaris, P. D. Haynes, A. A. Mostofi, M. C. Payne.   |
 |   J. Chem. Phys. 122 084119 (2005).                           |
 |                                                               |
 |          in all publications arising from your use of ONETEP. |
 |                                                               |
 +---------------------------------------------------------------+
 |                                                               |
 |   ONETEP is based on developments described in the following  |
 |   publications:                                               |
 |                                                               |
 |  "Nonorthogonal generalized Wannier function pseudopotential  |
 |   plane-wave method".                                         |
 |   C.-K. Skylaris, A. A. Mostofi, P. D. Haynes, O. Dieguez,    |
 |   M. C. Payne.                                                |
 |   Phys. Rev. B 66 035119 (2002).                              |
 |                                                               |
 |  "Preconditioned iterative minimization for linear-scaling    |
 |   electronic structure calculations".                         |
 |   A. A. Mostofi, P. D. Haynes, C.-K. Skylaris, M. C. Payne.   |
 |   J. Chem. Phys. 119(17), pp.8842-8848 (2003).                |
 |                                                               |
 |  "Total-energy calculations on a real space grid with         |
 |   localized functions and a plane-wave basis".                |
 |   A. A. Mostofi, C.-K. Skylaris, P. D. Haynes, M. C. Payne.   |
 |   Comput. Phys. Commun. 147, pp.788-802 (2002).               |
 |                                                               |
 |  "Accurate kinetic energy evaluation in electronic structure  |
 |   calculations with localized functions on real space grids"  |
 |   C.-K. Skylaris, A. A. Mostofi, P. D. Haynes, C. J. Pickard, |
 |   M. C. Payne.                                                |
 |   Comput. Phys. Commun. 140, pp.315-322 (2001).               |
 |                                                               |
 |  "Accurate ionic forces and geometry optimization in linear-  |
 |   scaling density-functional theory with local orbitals"      |
 |   N. D. M. Hine, M. Robinson, P. D. Haynes, C.-K. Skylaris,   |
 |   M. C. Payne, and A. A. Mostofi.                             |
 |   Phys. Rev. B 83 195102 (2011).                              |
 |                                                               |
 +---------------------------------------------------------------+

Job started: 24-02-2020 20:53 (-0000)
 
Reading parameters from file "3.1661816_GO_manual_4x64graphite.dat" ...

WARNING: "cutoff_energy" not specified, but "psinc_spacing" specified.
         Using the latter to set the KE cutoff energy to  732.32021eV,
         thus *overriding* the default.

... done

If your calculation crashes here, before "Checking processes and threads..."
is displayed, then your stack size is insufficient.
If so, use "ulimit -s unlimited" at runtime.
You can disable this check with "check_stack_size F".

Checking processes and threads...
   Determining the default number of threads...
      No default threads set at compilation time: defaulting to 1.
      OpenMP library call suggests 4 threads.
      Hybrid MPI-OpenMP compilation detected.
      Number of MPI processes > 1.
      OMP_NUM_THREADS environment variable present and
      its value matches the one obtained from the OpenMP library call.
      Using this value as default.
      Default threads: 4
      Default applies to threads_max and threads_num_fftboxes.
      Settings in the input file override this default.
   ... done

   Running with 40 MPI processes.
   There are 10 MPI processes running on the same node as the root process.
   Each MPI process is using: 
               1 threads for simulation cell FFTs.
               1 threads for parallel FFT box operations.
               4 threads for loops over batched FFT box operations.
               4 threads in other parallel regions.
... done

Basic input checks...
Resetting ngwf_cg_rotate to TRUE for EDFT calculations
... done

Reading geometry and species blocks from file "3.1661816_GO_manual_4x64graphite.dat" ...
    
  PSINC grid spacing along a1 set to   0.511215680000a0 from input file.
  PSINC grid spacing along a2 set to   0.531284090000a0 from input file.
  PSINC grid spacing along a3 set to   0.507053250000a0 from input file.
  Number of PPD points along a3 set to 1.  This is 
  the default value, it may have been provided also in the input file.
... done
 Writing xyz coordinates to file "3.1661816_GO_manual_4x64graphite.xyz" ... done


--------------------------------------------------------------------------------
---------------------------------- INPUT FILE ----------------------------------
--------------------------------------------------------------------------------

task : singlepoint                                                              
do_properties : true                                                            
dx_format T                                                                     
edft T                                                                          
output_detail VERBOSE                                                           
write_xyz T                                                                     
xc_functional OPTPBE                                                            
PSINC_SPACING 0.51121568 0.53128409 0.50705325                                  
paw T                                                                           
pdos_max_l = 2                                                                  
dos_smear  0.1 eV                                                               
popn_calculate T                                                                
PDOS_PSEUDOATOMIC T                                                             
PDOS_REDUCE_SWS F                                                               
PDOS_CONSTRUCT_BASIS F                                                          
PDOS_LOWDIN T                                                                   
PDOS_ORTH_ATOM_BLOCKS F                                                         
PDOS_LCAO_OPTIMIZE F                                                            
pdos_optados_output T                                                           
homo_plot 0                                                                     
lumo_plot 0                                                                     
homo_dens_plot -1                                                               
lumo_dens_plot -1                                                               
%BLOCK SPECIES                                                                  
C C 6 4 9.0                                                                     
%ENDBLOCK SPECIES                                                               
%BLOCK SPECIES_POT                                                              
C "~/pp/paw/c_pbe_abinit.paw"                                                   
%ENDBLOCK SPECIES_POT                                                           
%BLOCK SPECIES_ATOMIC_SET                                                       
C "SOLVE conf=2s2 2p2"                                                          
%ENDBLOCK SPECIES_ATOMIC_SET                                                    
%BLOCK LATTICE_CART                                                             
32.21  0.00  0.00                                                               
0.00 18.59  0.00                                                                
0.00  0.00 59.83                                                                
%ENDBLOCK LATTICE_CART                                                          
%BLOCK POSITIONS_ABS                                                            
C  0.00  0.00  2.99                                                             
C  0.00  0.00 14.96                                                             
C  0.00  0.00 26.92                                                             
C  0.00  0.00 38.89                                                             
C  0.00  0.00 50.86                                                             
C  0.00  4.65  2.99                                                             
C  0.00  4.65 14.96                                                             
C  0.00  4.65 26.92                                                             
C  0.00  4.65 38.89                                                             
C  0.00  4.65 50.86                                                             
C  4.03  2.32  2.99                                                             
C  4.03  2.32 14.96                                                             
C  4.03  2.32 26.92                                                             
C  4.03  2.32 38.89                                                             
C  4.03  2.32 50.86                                                             
C  8.05  0.00  2.99                                                             
C  8.05  0.00 14.96                                                             
C  8.05  0.00 26.92                                                             
C  8.05  0.00 38.89                                                             
C  8.05  0.00 50.86                                                             
C  0.00  9.30  2.99                                                             
C  0.00  9.30 14.96                                                             
C  0.00  9.30 26.92                                                             
C  0.00  9.30 38.89                                                             
C  0.00  9.30 50.86                                                             
C  4.03  6.97  2.99                                                             
C  4.03  6.97 14.96                                                             
C  4.03  6.97 26.92                                                             
C  4.03  6.97 38.89                                                             
C  4.03  6.97 50.86                                                             
C  8.05  4.65  2.99                                                             
C  8.05  4.65 14.96                                                             
C  8.05  4.65 26.92                                                             
C  8.05  4.65 38.89                                                             
C  8.05  4.65 50.86                                                             
C 12.08  2.32  2.99                                                             
C 12.08  2.32 14.96                                                             
C 12.08  2.32 26.92                                                             
C 12.08  2.32 38.89                                                             
C 12.08  2.32 50.86                                                             
C 16.10  0.00  2.99                                                             
C 16.10  0.00 14.96                                                             
C 16.10  0.00 26.92                                                             
C 16.10  0.00 38.89                                                             
C 16.10  0.00 50.86                                                             
C  0.00 13.95  2.99                                                             
C  0.00 13.95 14.96                                                             
C  0.00 13.95 26.92                                                             
C  0.00 13.95 38.89                                                             
C  0.00 13.95 50.86                                                             
C  4.03 11.62  2.99                                                             
C  4.03 11.62 14.96                                                             
C  4.03 11.62 26.92                                                             
C  4.03 11.62 38.89                                                             
C  4.03 11.62 50.86                                                             
C  8.05  9.30  2.99                                                             
C  8.05  9.30 14.96                                                             
C  8.05  9.30 26.92                                                             
C  8.05  9.30 38.89                                                             
C  8.05  9.30 50.86                                                             
C 12.08  6.97  2.99                                                             
C 12.08  6.97 14.96                                                             
C 12.08  6.97 26.92                                                             
C 12.08  6.97 38.89                                                             
C 12.08  6.97 50.86                                                             
C 16.10  4.65  2.99                                                             
C 16.10  4.65 14.96                                                             
C 16.10  4.65 26.92                                                             
C 16.10  4.65 38.89                                                             
C 16.10  4.65 50.86                                                             
C 20.13  2.32  2.99                                                             
C 20.13  2.32 14.96                                                             
C 20.13  2.32 26.92                                                             
C 20.13  2.32 38.89                                                             
C 20.13  2.32 50.86                                                             
C 24.16  0.00  2.99                                                             
C 24.16  0.00 14.96                                                             
C 24.16  0.00 26.92                                                             
C 24.16  0.00 38.89                                                             
C 24.16  0.00 50.86                                                             
C  4.03 16.27  2.99                                                             
C  4.03 16.27 14.96                                                             
C  4.03 16.27 26.92                                                             
C  4.03 16.27 38.89                                                             
C  4.03 16.27 50.86                                                             
C  8.05 13.95  2.99                                                             
C  8.05 13.95 14.96                                                             
C  8.05 13.95 26.92                                                             
C  8.05 13.95 38.89                                                             
C  8.05 13.95 50.86                                                             
C 12.08 11.62  2.99                                                             
C 12.08 11.62 14.96                                                             
C 12.08 11.62 26.92                                                             
C 12.08 11.62 38.89                                                             
C 12.08 11.62 50.86                                                             
C 16.10  9.30  2.99                                                             
C 16.10  9.30 14.96                                                             
C 16.10  9.30 26.92                                                             
C 16.10  9.30 38.89                                                             
C 16.10  9.30 50.86                                                             
C 20.13  6.97  2.99                                                             
C 20.13  6.97 14.96                                                             
C 20.13  6.97 26.92                                                             
C 20.13  6.97 38.89                                                             
C 20.13  6.97 50.86                                                             
C 24.16  4.65  2.99                                                             
C 24.16  4.65 14.96                                                             
C 24.16  4.65 26.92                                                             
C 24.16  4.65 38.89                                                             
C 24.16  4.65 50.86                                                             
C 28.18  2.32  2.99                                                             
C 28.18  2.32 14.96                                                             
C 28.18  2.32 26.92                                                             
C 28.18  2.32 38.89                                                             
C 28.18  2.32 50.86                                                             
C 12.08 16.27  2.99                                                             
C 12.08 16.27 14.96                                                             
C 12.08 16.27 26.92                                                             
C 12.08 16.27 38.89                                                             
C 12.08 16.27 50.86                                                             
C 16.10 13.95  2.99                                                             
C 16.10 13.95 14.96                                                             
C 16.10 13.95 26.92                                                             
C 16.10 13.95 38.89                                                             
C 16.10 13.95 50.86                                                             
C 20.13 11.62  2.99                                                             
C 20.13 11.62 14.96                                                             
C 20.13 11.62 26.92                                                             
C 20.13 11.62 38.89                                                             
C 20.13 11.62 50.86                                                             
C 24.16  9.30  2.99                                                             
C 24.16  9.30 14.96                                                             
C 24.16  9.30 26.92                                                             
C 24.16  9.30 38.89                                                             
C 24.16  9.30 50.86                                                             
C 28.18  6.97  2.99                                                             
C 28.18  6.97 14.96                                                             
C 28.18  6.97 26.92                                                             
C 28.18  6.97 38.89                                                             
C 28.18  6.97 50.86                                                             
C 20.13 16.27  2.99                                                             
C 20.13 16.27 14.96                                                             
C 20.13 16.27 26.92                                                             
C 20.13 16.27 38.89                                                             
C 20.13 16.27 50.86                                                             
C 24.16 13.95  2.99                                                             
C 24.16 13.95 14.96                                                             
C 24.16 13.95 26.92                                                             
C 24.16 13.95 38.89                                                             
C 24.16 13.95 50.86                                                             
C 28.18 11.62  2.99                                                             
C 28.18 11.62 14.96                                                             
C 28.18 11.62 26.92                                                             
C 28.18 11.62 38.89                                                             
C 28.18 11.62 50.86                                                             
C 28.18 16.27  2.99                                                             
C 28.18 16.27 14.96                                                             
C 28.18 16.27 26.92                                                             
C 28.18 16.27 38.89                                                             
C 28.18 16.27 50.86                                                             
C  0.00  0.00  8.97                                                             
C  0.00  0.00 20.94                                                             
C  0.00  0.00 32.91                                                             
C  0.00  0.00 44.87                                                             
C  0.00  0.00 56.84                                                             
C  0.00  4.65  8.97                                                             
C  0.00  4.65 20.94                                                             
C  0.00  4.65 32.91                                                             
C  0.00  4.65 44.87                                                             
C  0.00  4.65 56.84                                                             
C  4.03  2.32  8.97                                                             
C  4.03  2.32 20.94                                                             
C  4.03  2.32 32.91                                                             
C  4.03  2.32 44.87                                                             
C  4.03  2.32 56.84                                                             
C  8.05  0.00  8.97                                                             
C  8.05  0.00 20.94                                                             
C  8.05  0.00 32.91                                                             
C  8.05  0.00 44.87                                                             
C  8.05  0.00 56.84                                                             
C  0.00  9.30  8.97                                                             
C  0.00  9.30 20.94                                                             
C  0.00  9.30 32.91                                                             
C  0.00  9.30 44.87                                                             
C  0.00  9.30 56.84                                                             
C  4.03  6.97  8.97                                                             
C  4.03  6.97 20.94                                                             
C  4.03  6.97 32.91                                                             
C  4.03  6.97 44.87                                                             
C  4.03  6.97 56.84                                                             
C  8.05  4.65  8.97                                                             
C  8.05  4.65 20.94                                                             
C  8.05  4.65 32.91                                                             
C  8.05  4.65 44.87                                                             
C  8.05  4.65 56.84                                                             
C 12.08  2.32  8.97                                                             
C 12.08  2.32 20.94                                                             
C 12.08  2.32 32.91                                                             
C 12.08  2.32 44.87                                                             
C 12.08  2.32 56.84                                                             
C 16.10  0.00  8.97                                                             
C 16.10  0.00 20.94                                                             
C 16.10  0.00 32.91                                                             
C 16.10  0.00 44.87                                                             
C 16.10  0.00 56.84                                                             
C  0.00 13.95  8.97                                                             
C  0.00 13.95 20.94                                                             
C  0.00 13.95 32.91                                                             
C  0.00 13.95 44.87                                                             
C  0.00 13.95 56.84                                                             
C  4.03 11.62  8.97                                                             
C  4.03 11.62 20.94                                                             
C  4.03 11.62 32.91                                                             
C  4.03 11.62 44.87                                                             
C  4.03 11.62 56.84                                                             
C  8.05  9.30  8.97                                                             
C  8.05  9.30 20.94                                                             
C  8.05  9.30 32.91                                                             
C  8.05  9.30 44.87                                                             
C  8.05  9.30 56.84                                                             
C 12.08  6.97  8.97                                                             
C 12.08  6.97 20.94                                                             
C 12.08  6.97 32.91                                                             
C 12.08  6.97 44.87                                                             
C 12.08  6.97 56.84                                                             
C 16.10  4.65  8.97                                                             
C 16.10  4.65 20.94                                                             
C 16.10  4.65 32.91                                                             
C 16.10  4.65 44.87                                                             
C 16.10  4.65 56.84                                                             
C 20.13  2.32  8.97                                                             
C 20.13  2.32 20.94                                                             
C 20.13  2.32 32.91                                                             
C 20.13  2.32 44.87                                                             
C 20.13  2.32 56.84                                                             
C 24.16  0.00  8.97                                                             
C 24.16  0.00 20.94                                                             
C 24.16  0.00 32.91                                                             
C 24.16  0.00 44.87                                                             
C 24.16  0.00 56.84                                                             
C  4.03 16.27  8.97                                                             
C  4.03 16.27 20.94                                                             
C  4.03 16.27 32.91                                                             
C  4.03 16.27 44.87                                                             
C  4.03 16.27 56.84                                                             
C  8.05 13.95  8.97                                                             
C  8.05 13.95 20.94                                                             
C  8.05 13.95 32.91                                                             
C  8.05 13.95 44.87                                                             
C  8.05 13.95 56.84                                                             
C 12.08 11.62  8.97                                                             
C 12.08 11.62 20.94                                                             
C 12.08 11.62 32.91                                                             
C 12.08 11.62 44.87                                                             
C 12.08 11.62 56.84                                                             
C 16.10  9.30  8.97                                                             
C 16.10  9.30 20.94                                                             
C 16.10  9.30 32.91                                                             
C 16.10  9.30 44.87                                                             
C 16.10  9.30 56.84                                                             
C 20.13  6.97  8.97                                                             
C 20.13  6.97 20.94                                                             
C 20.13  6.97 32.91                                                             
C 20.13  6.97 44.87                                                             
C 20.13  6.97 56.84                                                             
C 24.16  4.65  8.97                                                             
C 24.16  4.65 20.94                                                             
C 24.16  4.65 32.91                                                             
C 24.16  4.65 44.87                                                             
C 24.16  4.65 56.84                                                             
C 28.18  2.32  8.97                                                             
C 28.18  2.32 20.94                                                             
C 28.18  2.32 32.91                                                             
C 28.18  2.32 44.87                                                             
C 28.18  2.32 56.84                                                             
C 12.08 16.27  8.97                                                             
C 12.08 16.27 20.94                                                             
C 12.08 16.27 32.91                                                             
C 12.08 16.27 44.87                                                             
C 12.08 16.27 56.84                                                             
C 16.10 13.95  8.97                                                             
C 16.10 13.95 20.94                                                             
C 16.10 13.95 32.91                                                             
C 16.10 13.95 44.87                                                             
C 16.10 13.95 56.84                                                             
C 20.13 11.62  8.97                                                             
C 20.13 11.62 20.94                                                             
C 20.13 11.62 32.91                                                             
C 20.13 11.62 44.87                                                             
C 20.13 11.62 56.84                                                             
C 24.16  9.30  8.97                                                             
C 24.16  9.30 20.94                                                             
C 24.16  9.30 32.91                                                             
C 24.16  9.30 44.87                                                             
C 24.16  9.30 56.84                                                             
C 28.18  6.97  8.97                                                             
C 28.18  6.97 20.94                                                             
C 28.18  6.97 32.91                                                             
C 28.18  6.97 44.87                                                             
C 28.18  6.97 56.84                                                             
C 20.13 16.27  8.97                                                             
C 20.13 16.27 20.94                                                             
C 20.13 16.27 32.91                                                             
C 20.13 16.27 44.87                                                             
C 20.13 16.27 56.84                                                             
C 24.16 13.95  8.97                                                             
C 24.16 13.95 20.94                                                             
C 24.16 13.95 32.91                                                             
C 24.16 13.95 44.87                                                             
C 24.16 13.95 56.84                                                             
C 28.18 11.62  8.97                                                             
C 28.18 11.62 20.94                                                             
C 28.18 11.62 32.91                                                             
C 28.18 11.62 44.87                                                             
C 28.18 11.62 56.84                                                             
C 28.18 16.27  8.97                                                             
C 28.18 16.27 20.94                                                             
C 28.18 16.27 32.91                                                             
C 28.18 16.27 44.87                                                             
C 28.18 16.27 56.84                                                             
C  1.34  2.32  2.99                                                             
C  1.34  2.32 14.96                                                             
C  1.34  2.32 26.92                                                             
C  1.34  2.32 38.89                                                             
C  1.34  2.32 50.86                                                             
C  5.37  0.00  2.99                                                             
C  5.37  0.00 14.96                                                             
C  5.37  0.00 26.92                                                             
C  5.37  0.00 38.89                                                             
C  5.37  0.00 50.86                                                             
C  1.34  6.97  2.99                                                             
C  1.34  6.97 14.96                                                             
C  1.34  6.97 26.92                                                             
C  1.34  6.97 38.89                                                             
C  1.34  6.97 50.86                                                             
C  5.37  4.65  2.99                                                             
C  5.37  4.65 14.96                                                             
C  5.37  4.65 26.92                                                             
C  5.37  4.65 38.89                                                             
C  5.37  4.65 50.86                                                             
C  9.39  2.32  2.99                                                             
C  9.39  2.32 14.96                                                             
C  9.39  2.32 26.92                                                             
C  9.39  2.32 38.89                                                             
C  9.39  2.32 50.86                                                             
C 13.42  0.00  2.99                                                             
C 13.42  0.00 14.96                                                             
C 13.42  0.00 26.92                                                             
C 13.42  0.00 38.89                                                             
C 13.42  0.00 50.86                                                             
C  1.34 11.62  2.99                                                             
C  1.34 11.62 14.96                                                             
C  1.34 11.62 26.92                                                             
C  1.34 11.62 38.89                                                             
C  1.34 11.62 50.86                                                             
C  5.37  9.30  2.99                                                             
C  5.37  9.30 14.96                                                             
C  5.37  9.30 26.92                                                             
C  5.37  9.30 38.89                                                             
C  5.37  9.30 50.86                                                             
C  9.39  6.97  2.99                                                             
C  9.39  6.97 14.96                                                             
C  9.39  6.97 26.92                                                             
C  9.39  6.97 38.89                                                             
C  9.39  6.97 50.86                                                             
C 13.42  4.65  2.99                                                             
C 13.42  4.65 14.96                                                             
C 13.42  4.65 26.92                                                             
C 13.42  4.65 38.89                                                             
C 13.42  4.65 50.86                                                             
C 17.45  2.32  2.99                                                             
C 17.45  2.32 14.96                                                             
C 17.45  2.32 26.92                                                             
C 17.45  2.32 38.89                                                             
C 17.45  2.32 50.86                                                             
C 21.47  0.00  2.99                                                             
C 21.47  0.00 14.96                                                             
C 21.47  0.00 26.92                                                             
C 21.47  0.00 38.89                                                             
C 21.47  0.00 50.86                                                             
C  1.34 16.27  2.99                                                             
C  1.34 16.27 14.96                                                             
C  1.34 16.27 26.92                                                             
C  1.34 16.27 38.89                                                             
C  1.34 16.27 50.86                                                             
C  5.37 13.95  2.99                                                             
C  5.37 13.95 14.96                                                             
C  5.37 13.95 26.92                                                             
C  5.37 13.95 38.89                                                             
C  5.37 13.95 50.86                                                             
C  9.39 11.62  2.99                                                             
C  9.39 11.62 14.96                                                             
C  9.39 11.62 26.92                                                             
C  9.39 11.62 38.89                                                             
C  9.39 11.62 50.86                                                             
C 13.42  9.30  2.99                                                             
C 13.42  9.30 14.96                                                             
C 13.42  9.30 26.92                                                             
C 13.42  9.30 38.89                                                             
C 13.42  9.30 50.86                                                             
C 17.45  6.97  2.99                                                             
C 17.45  6.97 14.96                                                             
C 17.45  6.97 26.92                                                             
C 17.45  6.97 38.89                                                             
C 17.45  6.97 50.86                                                             
C 21.47  4.65  2.99                                                             
C 21.47  4.65 14.96                                                             
C 21.47  4.65 26.92                                                             
C 21.47  4.65 38.89                                                             
C 21.47  4.65 50.86                                                             
C 25.50  2.32  2.99                                                             
C 25.50  2.32 14.96                                                             
C 25.50  2.32 26.92                                                             
C 25.50  2.32 38.89                                                             
C 25.50  2.32 50.86                                                             
C 29.52  0.00  2.99                                                             
C 29.52  0.00 14.96                                                             
C 29.52  0.00 26.92                                                             
C 29.52  0.00 38.89                                                             
C 29.52  0.00 50.86                                                             
C  9.39 16.27  2.99                                                             
C  9.39 16.27 14.96                                                             
C  9.39 16.27 26.92                                                             
C  9.39 16.27 38.89                                                             
C  9.39 16.27 50.86                                                             
C 13.42 13.95  2.99                                                             
C 13.42 13.95 14.96                                                             
C 13.42 13.95 26.92                                                             
C 13.42 13.95 38.89                                                             
C 13.42 13.95 50.86                                                             
C 17.45 11.62  2.99                                                             
C 17.45 11.62 14.96                                                             
C 17.45 11.62 26.92                                                             
C 17.45 11.62 38.89                                                             
C 17.45 11.62 50.86                                                             
C 21.47  9.30  2.99                                                             
C 21.47  9.30 14.96                                                             
C 21.47  9.30 26.92                                                             
C 21.47  9.30 38.89                                                             
C 21.47  9.30 50.86                                                             
C 25.50  6.97  2.99                                                             
C 25.50  6.97 14.96                                                             
C 25.50  6.97 26.92                                                             
C 25.50  6.97 38.89                                                             
C 25.50  6.97 50.86                                                             
C 29.52  4.65  2.99                                                             
C 29.52  4.65 14.96                                                             
C 29.52  4.65 26.92                                                             
C 29.52  4.65 38.89                                                             
C 29.52  4.65 50.86                                                             
C 17.45 16.27  2.99                                                             
C 17.45 16.27 14.96                                                             
C 17.45 16.27 26.92                                                             
C 17.45 16.27 38.89                                                             
C 17.45 16.27 50.86                                                             
C 21.47 13.95  2.99                                                             
C 21.47 13.95 14.96                                                             
C 21.47 13.95 26.92                                                             
C 21.47 13.95 38.89                                                             
C 21.47 13.95 50.86                                                             
C 25.50 11.62  2.99                                                             
C 25.50 11.62 14.96                                                             
C 25.50 11.62 26.92                                                             
C 25.50 11.62 38.89                                                             
C 25.50 11.62 50.86                                                             
C 29.52  9.30  2.99                                                             
C 29.52  9.30 14.96                                                             
C 29.52  9.30 26.92                                                             
C 29.52  9.30 38.89                                                             
C 29.52  9.30 50.86                                                             
C 25.50 16.27  2.99                                                             
C 25.50 16.27 14.96                                                             
C 25.50 16.27 26.92                                                             
C 25.50 16.27 38.89                                                             
C 25.50 16.27 50.86                                                             
C 29.52 13.95  2.99                                                             
C 29.52 13.95 14.96                                                             
C 29.52 13.95 26.92                                                             
C 29.52 13.95 38.89                                                             
C 29.52 13.95 50.86                                                             
C  2.68  0.00  8.97                                                             
C  2.68  0.00 20.94                                                             
C  2.68  0.00 32.91                                                             
C  2.68  0.00 44.87                                                             
C  2.68  0.00 56.84                                                             
C  2.68  4.65  8.97                                                             
C  2.68  4.65 20.94                                                             
C  2.68  4.65 32.91                                                             
C  2.68  4.65 44.87                                                             
C  2.68  4.65 56.84                                                             
C  6.71  2.32  8.97                                                             
C  6.71  2.32 20.94                                                             
C  6.71  2.32 32.91                                                             
C  6.71  2.32 44.87                                                             
C  6.71  2.32 56.84                                                             
C 10.74  0.00  8.97                                                             
C 10.74  0.00 20.94                                                             
C 10.74  0.00 32.91                                                             
C 10.74  0.00 44.87                                                             
C 10.74  0.00 56.84                                                             
C  2.68  9.30  8.97                                                             
C  2.68  9.30 20.94                                                             
C  2.68  9.30 32.91                                                             
C  2.68  9.30 44.87                                                             
C  2.68  9.30 56.84                                                             
C  6.71  6.97  8.97                                                             
C  6.71  6.97 20.94                                                             
C  6.71  6.97 32.91                                                             
C  6.71  6.97 44.87                                                             
C  6.71  6.97 56.84                                                             
C 10.74  4.65  8.97                                                             
C 10.74  4.65 20.94                                                             
C 10.74  4.65 32.91                                                             
C 10.74  4.65 44.87                                                             
C 10.74  4.65 56.84                                                             
C 14.76  2.32  8.97                                                             
C 14.76  2.32 20.94                                                             
C 14.76  2.32 32.91                                                             
C 14.76  2.32 44.87                                                             
C 14.76  2.32 56.84                                                             
C 18.79  0.00  8.97                                                             
C 18.79  0.00 20.94                                                             
C 18.79  0.00 32.91                                                             
C 18.79  0.00 44.87                                                             
C 18.79  0.00 56.84                                                             
C  2.68 13.95  8.97                                                             
C  2.68 13.95 20.94                                                             
C  2.68 13.95 32.91                                                             
C  2.68 13.95 44.87                                                             
C  2.68 13.95 56.84                                                             
C  6.71 11.62  8.97                                                             
C  6.71 11.62 20.94                                                             
C  6.71 11.62 32.91                                                             
C  6.71 11.62 44.87                                                             
C  6.71 11.62 56.84                                                             
C 10.74  9.30  8.97                                                             
C 10.74  9.30 20.94                                                             
C 10.74  9.30 32.91                                                             
C 10.74  9.30 44.87                                                             
C 10.74  9.30 56.84                                                             
C 14.76  6.97  8.97                                                             
C 14.76  6.97 20.94                                                             
C 14.76  6.97 32.91                                                             
C 14.76  6.97 44.87                                                             
C 14.76  6.97 56.84                                                             
C 18.79  4.65  8.97                                                             
C 18.79  4.65 20.94                                                             
C 18.79  4.65 32.91                                                             
C 18.79  4.65 44.87                                                             
C 18.79  4.65 56.84                                                             
C 22.81  2.32  8.97                                                             
C 22.81  2.32 20.94                                                             
C 22.81  2.32 32.91                                                             
C 22.81  2.32 44.87                                                             
C 22.81  2.32 56.84                                                             
C 26.84  0.00  8.97                                                             
C 26.84  0.00 20.94                                                             
C 26.84  0.00 32.91                                                             
C 26.84  0.00 44.87                                                             
C 26.84  0.00 56.84                                                             
C  6.71 16.27  8.97                                                             
C  6.71 16.27 20.94                                                             
C  6.71 16.27 32.91                                                             
C  6.71 16.27 44.87                                                             
C  6.71 16.27 56.84                                                             
C 10.74 13.95  8.97                                                             
C 10.74 13.95 20.94                                                             
C 10.74 13.95 32.91                                                             
C 10.74 13.95 44.87                                                             
C 10.74 13.95 56.84                                                             
C 14.76 11.62  8.97                                                             
C 14.76 11.62 20.94                                                             
C 14.76 11.62 32.91                                                             
C 14.76 11.62 44.87                                                             
C 14.76 11.62 56.84                                                             
C 18.79  9.30  8.97                                                             
C 18.79  9.30 20.94                                                             
C 18.79  9.30 32.91                                                             
C 18.79  9.30 44.87                                                             
C 18.79  9.30 56.84                                                             
C 22.81  6.97  8.97                                                             
C 22.81  6.97 20.94                                                             
C 22.81  6.97 32.91                                                             
C 22.81  6.97 44.87                                                             
C 22.81  6.97 56.84                                                             
C 26.84  4.65  8.97                                                             
C 26.84  4.65 20.94                                                             
C 26.84  4.65 32.91                                                             
C 26.84  4.65 44.87                                                             
C 26.84  4.65 56.84                                                             
C 30.86  2.32  8.97                                                             
C 30.86  2.32 20.94                                                             
C 30.86  2.32 32.91                                                             
C 30.86  2.32 44.87                                                             
C 30.86  2.32 56.84                                                             
C 14.76 16.27  8.97                                                             
C 14.76 16.27 20.94                                                             
C 14.76 16.27 32.91                                                             
C 14.76 16.27 44.87                                                             
C 14.76 16.27 56.84                                                             
C 18.79 13.95  8.97                                                             
C 18.79 13.95 20.94                                                             
C 18.79 13.95 32.91                                                             
C 18.79 13.95 44.87                                                             
C 18.79 13.95 56.84                                                             
C 22.81 11.62  8.97                                                             
C 22.81 11.62 20.94                                                             
C 22.81 11.62 32.91                                                             
C 22.81 11.62 44.87                                                             
C 22.81 11.62 56.84                                                             
C 26.84  9.30  8.97                                                             
C 26.84  9.30 20.94                                                             
C 26.84  9.30 32.91                                                             
C 26.84  9.30 44.87                                                             
C 26.84  9.30 56.84                                                             
C 30.86  6.97  8.97                                                             
C 30.86  6.97 20.94                                                             
C 30.86  6.97 32.91                                                             
C 30.86  6.97 44.87                                                             
C 30.86  6.97 56.84                                                             
C 22.81 16.27  8.97                                                             
C 22.81 16.27 20.94                                                             
C 22.81 16.27 32.91                                                             
C 22.81 16.27 44.87                                                             
C 22.81 16.27 56.84                                                             
C 26.84 13.95  8.97                                                             
C 26.84 13.95 20.94                                                             
C 26.84 13.95 32.91                                                             
C 26.84 13.95 44.87                                                             
C 26.84 13.95 56.84                                                             
C 30.86 11.62  8.97                                                             
C 30.86 11.62 20.94                                                             
C 30.86 11.62 32.91                                                             
C 30.86 11.62 44.87                                                             
C 30.86 11.62 56.84                                                             
C 30.86 16.27  8.97                                                             
C 30.86 16.27 20.94                                                             
C 30.86 16.27 32.91                                                             
C 30.86 16.27 44.87                                                             
C 30.86 16.27 56.84                                                             
%ENDBLOCK POSITIONS_ABS                                                         

--------------------------------------------------------------------------------
-------------------------------- END INPUT FILE --------------------------------
--------------------------------------------------------------------------------


 
<<<<<<<<<<<<<<<<<<<<<<<<<<<<<<<<< Full system >>>>>>>>>>>>>>>>>>>>>>>>>>>>>>>>>>
<<<<<<<<<<<<<<<<<<<<<<<<<<< PAW Dataset information >>>>>>>>>>>>>>>>>>>>>>>>>>>
File: ~/pp/paw/c_pbe_abinit.paw; rc = 1.25 bohr; shape type =  3; rshape = 1.25 bohr;
  Atomic number:  6;  ionic charge:  4.000000
    Partial Wave 1: l = 0
    Partial Wave 2: l = 0
    Partial Wave 3: l = 1
    Partial Wave 4: l = 1
  Core charge supplied for Nonlinear Core Corrections
<<<<<<<<<<<<<<<<<<<<<<<<<<<<<<<<<<<<<<< >>>>>>>>>>>>>>>>>>>>>>>>>>>>>>>>>>>>>>>

-------------------------- Atom counting information ---------------------------
Symbol    Natoms    Nngwfs    Nprojs
  C        640      2560      5120
.......   ......    ......    ......
Totals:    640      2560      5120
--------------------------------------------------------------------------------

=============================== PSINC grid sizes ===============================
                      Simulation cell:   63 x  35 x 118
                              FFT-box:   63 x  35 x 117
                                  PPD:    7 x   5 x   1
Grid space d1=  0.511269841270a0 (KE cutoff=  29.06054Eh = 790.77748eV)
Grid space d2=  0.531142857143a0 (KE cutoff=  26.92659Eh = 732.70972eV)
Grid space d3=  0.507033898305a0 (KE cutoff=  29.54813Eh = 804.04555eV)
================================================================================
  
WARNING in cell_grid_distribute:
Average of less than one 23-slab per node, so workload cannot be
equally balanced between nodes.

********************* Fourier parallelisation information **********************
       Coarse grid (whole simulation cell) dimensions:     63    35   118
          Real-space ('12') slabs/node (min max mean):      2     3     2
         Recip-space ('23') slabs/node (min max mean):      0     1     0
********************************************************************************

********************* Fourier parallelisation information **********************
       Double grid (whole simulation cell) dimensions:    126    70   236
          Real-space ('12') slabs/node (min max mean):      5     6     5
         Recip-space ('23') slabs/node (min max mean):      1     2     1
********************************************************************************

Atom SCF Calculation for C  : Z (AE atom) =   6 : Z (PS atom) =   4
Config String: 2s2 2p2
Orbitals (num,occ):  2     2.00 2.00
Orbitals   (num,l):  2        0    1
Real-space Grid (nr,dr,rmax): 1293    0.0069659443    9.0000000000
Spherical Bessel Basis (nsws,lmax,cutoff):   37    2  161.4736382572
Confining potential (l,width,scale):  0    3.0000000000  100.0000000000
Confining potential (l,width,scale):  1    3.0000000000  100.0000000000
  1         -5.4795203654   -1.3252209296    4.5135257941   -1.6370402169
  2         -5.4480859746   -1.4027979239    4.4305951748   -1.6109819005
  3         -5.4553164790   -1.4212834043    4.4102618304   -1.6059039466
  4         -5.4627841133   -1.4247091338    4.4065122085   -1.6052907585
  5         -5.4662306655   -1.4266814823    4.4043715292   -1.6049352647
  6         -5.4679520247   -1.4277352742    4.4032348712   -1.6047493439
  7         -5.4688359568   -1.4282868030    4.4026432892   -1.6046541449
  8         -5.4692951245   -1.4285734530    4.4023374832   -1.6046056242
  9         -5.4695349887   -1.4287220785    4.4021797781   -1.6045809101
 10         -5.4696606791   -1.4287991022    4.4020984905   -1.6045683155
 11         -5.4697266650   -1.4288390363    4.4020565747   -1.6045618912
 12         -5.4697613504   -1.4288597596    4.4020349416   -1.6045586107
 13         -5.4697795998   -1.4288705262    4.4020237638   -1.6045569335
 14         -5.4697892089   -1.4288761271    4.4020179806   -1.6045560749
 15         -5.4697942720   -1.4288790448    4.4020149844   -1.6045556348
 16         -5.4697969415   -1.4288805668    4.4020134298   -1.6045554088
 17         -5.4697983498   -1.4288813619    4.4020126220   -1.6045552927
 18         -5.4697990933   -1.4288817779    4.4020122017   -1.6045552329
 19         -5.4697994860   -1.4288819957    4.4020119826   -1.6045552021
 20         -5.4697996936   -1.4288821100    4.4020118683   -1.6045551862
 21         -5.4697998034   -1.4288821701    4.4020118085   -1.6045551780
 22         -5.4697998614   -1.4288822017    4.4020117772   -1.6045551737
Atom SCF converged after  22 iterations to a total energy of     -5.46979986

Determining parallel strategy ...
... using space-filling curve
... NGWF load balancing: max     64;  min     64;  average     64
... Projector load balancing: max    128;  min    128;  average    128
... done
Calculating Ewald energy ...
              Ewald: real-space energy =    9534.921797
        Ewald: reciprocal-space energy =       0.038880
         Ewald: (sum_charge)**2 Energy =   11534.361834
         Ewald: (sum_charge**2) Energy =     911.871369
                          Ewald Energy =   -2911.272526
Basis initialisation ...... NGWF spheres initialised
... Projector spheres initialised
... NGWF tight boxes initialised
... Projector tight boxes initialised
... Tight-boxes gathered
... NGWF basis size (local,global):     694868  27907776
... PAW projector initialisation
... done

============================= Charge Augmentation ==============================
                           Aug box size:   11 x  11 x  11
================================================================================

========================== Sparse matrix information ===========================
                        Overlap matrix filling:  44.84%
                        Density kernel filling: 100.00%
              NGWF-Proj overlap matrix filling:  13.12%
                    Aug Overlap matrix filling:  47.97%
                    Hamiltonian matrix filling:  47.97%
                  NGWF diagonal matrix filling:   0.16%
                             KS matrix filling: 100.00% 
                           KSKS matrix filling: 100.00% 
================================================================================

Sparse matrix initialisation ... done
NGWF initialisation ...... done
============ Calculation of NGWF S^-1 using Hotelling algorithm ================ 
         Iteration  |  Frobenius norm and Maximum abs value    (of I-S*S_n^-1)   
               1       0.49261254E+02     0.97854294E+00
               2       0.48173091E+02     0.95887609E+00
               3       0.46502744E+02     0.92391265E+00
               4       0.44278541E+02     0.86659991E+00
               5       0.41568050E+02     0.78120960E+00
               6       0.38335761E+02     0.69382022E+00
               7       0.34818003E+02     0.64279843E+00
               8       0.31426724E+02     0.60036472E+00
               9       0.27976321E+02     0.55875837E+00
              10       0.23760682E+02     0.49777958E+00
              11       0.18239071E+02     0.39889043E+00
              12       0.11573846E+02     0.26061772E+00
              13       0.52501197E+01     0.11708449E+00
              14       0.12865435E+01     0.26616424E-01
              15       0.92992874E-01     0.16755192E-02
              16       0.61654924E-03     0.85484273E-05
              17       0.40594226E-07     0.34735492E-09
              18       0.84741147E-13     0.42188475E-14
================================================================================
Calculating core density ...
================================= Core Density =================================
               Core den box size:   21 x  21 x  21
================================================================================
 ... done
Up spin density kernel initialisation ...... done

Writing density kernel to file "3.1661816_GO_manual_4x64graphite.dkn" ... done

>>> Optimising kernel for current NGWFs:

--------------------------- Ensemble-DFT optimisation --------------------------
Running ScaLAPACK on   40 processor(s).

--------------------------------------------------------------------------------
  Iter                              Commutator    Free_energy(A=E-TS)     DeltaA
#    0                          0.000049821121   -3652.27343040399592  -3.65E+03

Step                       =       0.381966011250
Energy                     =   -3652.273390975175
Entropy (-TS)              =      -0.000039428933
Free energy (A=E-TS)       =   -3652.273430403996
Est. 0K Energy 0.5*(E+A)   =   -3652.273410689585
Residual Non-orthogonality =       0.000000000000
Residual N_electrons       =       0.000000000112

Spin          Integrated_Ne            Fermi_level     Delta_Fermi_level
   1      2559.999999999538         0.242127813799              2.42E-01

                           Spin 1          
     Orb      H-eigenvalues     Occupancies
       1 |    -0.4832964211    1.0000000000 | 
                          ------
    1276 |     0.2092707293    0.9999688120 | 
    1277 |     0.2098671246    0.9999623493 | 
    1278 |     0.2098836754    0.9999621520 | 
    1279 |     0.2102485740    0.9999575299 | 
    1280 |     0.2108475164    0.9999486881 | 
                 - Gap at zero temperature -
    1281 |     0.2757114731    0.0000247941 | 
    1282 |     0.2757162552    0.0000247567 | 
    1283 |     0.2758415793    0.0000237961 | 
    1284 |     0.2759421464    0.0000230523 | 
    1285 |     0.2759468485    0.0000230181 | 
                          ------
    2560 |     1.0766225448    0.0000000000 | 

                       |  Abs_value |  Threshold | Converged
     Delta_Free_energy |   3.65E+03 |   1.00E-06 |        No
     Delta_Energy      |   3.65E+03 |   1.00E-04 |        No
     Delta_Entropy     |   3.94E-05 |   1.00E-04 |       Yes
     Commutator        |   4.98E-05 |   1.00E-05 |        No
     Delta_Fermi_level |   2.42E-01 |   1.00E-03 |        No

  Line search of the free energy minimum:
  Step_type        Step             Free_energy   Predicted_free_energy
.   Initial    0.000000    -3652.27343040399592
.    Trial1    0.381966    -3652.27592856063075
.    Trial2    0.618034    -3652.27550401441567
. Quadratic    0.433354    -3652.27596344023368    -3652.27596419002566

--------------------------------------------------------------------------------
  Iter                              Commutator    Free_energy(A=E-TS)     DeltaA
#    1                          0.000022383201   -3652.27596344023368  -2.53E-03

Step                       =       0.433354059667
Energy                     =   -3652.275925081296
Entropy (-TS)              =      -0.000038358715
Free energy (A=E-TS)       =   -3652.275963440234
Est. 0K Energy 0.5*(E+A)   =   -3652.275944260765
Residual Non-orthogonality =       0.000000000000
Residual N_electrons       =      -0.000000000223

Spin          Integrated_Ne            Fermi_level     Delta_Fermi_level
   1      2560.000000000911         0.244612324389              2.48E-03

                           Spin 1          
     Orb      H-eigenvalues     Occupancies
       1 |    -0.4815720692    1.0000000000 | 
                          ------
    1276 |     0.2117298458    0.9999690611 | 
    1277 |     0.2122103494    0.9999639921 | 
    1278 |     0.2122223548    0.9999638553 | 
    1279 |     0.2127338040    0.9999575203 | 
    1280 |     0.2132126714    0.9999505860 | 
                 - Gap at zero temperature -
    1281 |     0.2782712617    0.0000242117 | 
    1282 |     0.2782979228    0.0000240087 | 
    1283 |     0.2784395664    0.0000229585 | 
    1284 |     0.2785616291    0.0000220905 | 
    1285 |     0.2785961549    0.0000218509 | 
                          ------
    2560 |     1.0810354424    0.0000000000 | 

                       |  Abs_value |  Threshold | Converged
     Delta_Free_energy |   2.53E-03 |   1.00E-06 |        No
     Delta_Energy      |   2.53E-03 |   1.00E-04 |        No
     Delta_Entropy     |   1.07E-06 |   1.00E-04 |       Yes
     Commutator        |   2.24E-05 |   1.00E-05 |        No
     Delta_Fermi_level |   2.48E-03 |   1.00E-03 |        No

  Line search of the free energy minimum:
  Step_type        Step             Free_energy   Predicted_free_energy
.   Initial    0.000000    -3652.27596344023368
.    Trial1    0.433354    -3652.27633151432428
.    Trial2    0.649794    -3652.27587661844018
. Quadratic    0.310187    -3652.27640097784388    -3652.27640041096083

--------------------------------------------------------------------------------
  Iter                              Commutator    Free_energy(A=E-TS)     DeltaA
#    2                          0.000015360841   -3652.27640097784388  -4.38E-04

Step                       =       0.310186623098
Energy                     =   -3652.276363204263
Entropy (-TS)              =      -0.000037773154
Free energy (A=E-TS)       =   -3652.276400977844
Est. 0K Energy 0.5*(E+A)   =   -3652.276382091054
Residual Non-orthogonality =       0.000000000000
Residual N_electrons       =      -0.000000000427

Spin          Integrated_Ne            Fermi_level     Delta_Fermi_level
   1      2560.000000001737         0.245556224393              9.44E-04

                           Spin 1          
     Orb      H-eigenvalues     Occupancies
       1 |    -0.4808840083    1.0000000000 | 
                          ------
    1276 |     0.2126106903    0.9999696710 | 
    1277 |     0.2131132465    0.9999644553 | 
    1278 |     0.2131322852    0.9999642409 | 
    1279 |     0.2136037644    0.9999585006 | 
    1280 |     0.2141114921    0.9999512844 | 
                 - Gap at zero temperature -
    1281 |     0.2792674531    0.0000238152 | 
    1282 |     0.2793011845    0.0000235628 | 
    1283 |     0.2794371935    0.0000225723 | 
    1284 |     0.2795706656    0.0000216407 | 
    1285 |     0.2795841856    0.0000215485 | 
                          ------
    2560 |     1.0828017019    0.0000000000 | 

                       |  Abs_value |  Threshold | Converged
     Delta_Free_energy |   4.38E-04 |   1.00E-06 |        No
     Delta_Energy      |   4.38E-04 |   1.00E-04 |        No
     Delta_Entropy     |   5.86E-07 |   1.00E-04 |       Yes
     Commutator        |   1.54E-05 |   1.00E-05 |        No
     Delta_Fermi_level |   9.44E-04 |   1.00E-03 |       Yes

  Line search of the free energy minimum:
  Step_type        Step             Free_energy   Predicted_free_energy
.   Initial    0.000000    -3652.27640097784388
.    Trial1    0.310187    -3652.27657631508055
.    Trial2    0.573672    -3652.27631408371508
. Quadratic    0.258994    -3652.27658351385799    -3652.27658344380325

--------------------------------------------------------------------------------
  Iter                              Commutator    Free_energy(A=E-TS)     DeltaA
#    3                          0.000010700265   -3652.27658351385799  -1.83E-04

Step                       =       0.258994270566
Energy                     =   -3652.276546060136
Entropy (-TS)              =      -0.000037453335
Free energy (A=E-TS)       =   -3652.276583513858
Est. 0K Energy 0.5*(E+A)   =   -3652.276564786997
Residual Non-orthogonality =       0.000000000000
Residual N_electrons       =      -0.000000000387

Spin          Integrated_Ne            Fermi_level     Delta_Fermi_level
   1      2560.000000001574         0.246102991885              5.47E-04

                           Spin 1          
     Orb      H-eigenvalues     Occupancies
       1 |    -0.4804838195    1.0000000000 | 
                          ------
    1276 |     0.2131291578    0.9999699409 | 
    1277 |     0.2136319150    0.9999647692 | 
    1278 |     0.2136542779    0.9999645196 | 
    1279 |     0.2141186598    0.9999589161 | 
    1280 |     0.2146298782    0.9999517190 | 
                 - Gap at zero temperature -
    1281 |     0.2798410522    0.0000236142 | 
    1282 |     0.2798780252    0.0000233401 | 
    1283 |     0.2800126511    0.0000223687 | 
    1284 |     0.2801457780    0.0000214479 | 
    1285 |     0.2801558908    0.0000213795 | 
                          ------
    2560 |     1.0838271683    0.0000000000 | 

                       |  Abs_value |  Threshold | Converged
     Delta_Free_energy |   1.83E-04 |   1.00E-06 |        No
     Delta_Energy      |   1.83E-04 |   1.00E-04 |        No
     Delta_Entropy     |   3.20E-07 |   1.00E-04 |       Yes
     Commutator        |   1.07E-05 |   1.00E-05 |        No
     Delta_Fermi_level |   5.47E-04 |   1.00E-03 |       Yes

  Line search of the free energy minimum:
  Step_type        Step             Free_energy   Predicted_free_energy
.   Initial    0.000000    -3652.27658351385799
.    Trial1    0.258994    -3652.27667119566468
.    Trial2    0.542033    -3652.27659690423843
. Quadratic    0.282156    -3652.27667178274169    -3652.27667179052924

--------------------------------------------------------------------------------
  Iter                              Commutator    Free_energy(A=E-TS)     DeltaA
#    4                          0.000007967191   -3652.27667178274169  -8.83E-05

Step                       =       0.282156257186
Energy                     =   -3652.276634581456
[...]
 C   275 -- C   555       -0.10      5.37000
 C   274 -- C   554       -0.10      5.37000
 C   273 -- C   553       -0.10      5.37000
 C   272 -- C   552       -0.10      5.37000
 C   271 -- C   551       -0.10      5.37000
 C   270 -- C   550       -0.10      5.37000
 C   269 -- C   549       -0.10      5.37000
 C   268 -- C   548       -0.10      5.37000
 C   267 -- C   547       -0.10      5.37000
 C   266 -- C   546       -0.10      5.37000
 C   130 -- C   465       -0.10      5.37000
 C   129 -- C   464       -0.10      5.37000
 C   128 -- C   463       -0.10      5.37000
 C   127 -- C   462       -0.10      5.37000
 C   126 -- C   461       -0.10      5.37000
 C   240 -- C   525       -0.10      5.37000
 C   239 -- C   524       -0.10      5.37000
 C   238 -- C   523       -0.10      5.37000
 C   237 -- C   522       -0.10      5.37000
 C   236 -- C   521       -0.10      5.37000
 C    23 -- C   478       -0.10      5.37202
 C    49 -- C   469       -0.10      5.37202
 C    48 -- C   468       -0.10      5.37202
 C    47 -- C   467       -0.10      5.37202
 C    22 -- C   477       -0.10      5.37202
 C    46 -- C   466       -0.10      5.37202
 C    21 -- C   476       -0.10      5.37202
 C    25 -- C   480       -0.10      5.37202
 C    24 -- C   479       -0.10      5.37202
 C    50 -- C   470       -0.10      5.37202
 C    24 -- C   449       -0.10      5.37202
 C     6 -- C   416       -0.10      5.37202
 C    23 -- C   448       -0.10      5.37202
 C    22 -- C   447       -0.10      5.37202
 C    10 -- C   470       -0.10      5.37202
 C     5 -- C   450       -0.10      5.37202
 C    21 -- C   446       -0.10      5.37202
 C    10 -- C   420       -0.10      5.37202
 C     9 -- C   469       -0.10      5.37202
 C     9 -- C   419       -0.10      5.37202
 C     8 -- C   468       -0.10      5.37202
 C     4 -- C   449       -0.10      5.37202
 C     8 -- C   418       -0.10      5.37202
 C   285 -- C   580       -0.10      5.37202
 C   284 -- C   579       -0.10      5.37202
 C   283 -- C   578       -0.10      5.37202
 C   282 -- C   577       -0.10      5.37202
 C   281 -- C   576       -0.10      5.37202
 C     2 -- C   447       -0.10      5.37202
 C     7 -- C   467       -0.10      5.37202
 C   260 -- C   605       -0.10      5.37202
 C   259 -- C   604       -0.10      5.37202
 C   258 -- C   603       -0.10      5.37202
 C   257 -- C   602       -0.10      5.37202
 C   256 -- C   601       -0.10      5.37202
 C     7 -- C   417       -0.10      5.37202
 C     1 -- C   446       -0.10      5.37202
 C     6 -- C   466       -0.10      5.37202
 C    25 -- C   450       -0.10      5.37202
 C     3 -- C   448       -0.10      5.37202
 C   219 -- C   569       -0.10      5.37202
 C   218 -- C   568       -0.10      5.37202
 C   217 -- C   567       -0.10      5.37202
 C   216 -- C   566       -0.10      5.37202
 C   250 -- C   540       -0.10      5.37202
 C   249 -- C   539       -0.10      5.37202
 C   248 -- C   538       -0.10      5.37202
 C   247 -- C   537       -0.10      5.37202
 C   246 -- C   536       -0.10      5.37202
 C   220 -- C   570       -0.10      5.37202
 C   205 -- C   550       -0.10      5.37202
 C   204 -- C   549       -0.10      5.37202
 C   203 -- C   548       -0.10      5.37202
 C   202 -- C   547       -0.10      5.37202
 C   201 -- C   546       -0.10      5.37202
 C    95 -- C   365       -0.10      5.37202
 C    94 -- C   364       -0.10      5.37202
 C    93 -- C   363       -0.10      5.37202
 C    92 -- C   362       -0.10      5.37202
 C    91 -- C   361       -0.10      5.37202
 C    65 -- C   395       -0.10      5.37202
 C    64 -- C   394       -0.10      5.37202
 C    63 -- C   393       -0.10      5.37202
 C    30 -- C   355       -0.10      5.37202
 C    62 -- C   392       -0.10      5.37202
 C    61 -- C   391       -0.10      5.37202
 C    29 -- C   354       -0.10      5.37202
 C   260 -- C   550       -0.10      5.37202
 C   259 -- C   549       -0.10      5.37202
 C    28 -- C   353       -0.10      5.37202
 C   258 -- C   548       -0.10      5.37202
 C   257 -- C   547       -0.10      5.37202
 C   256 -- C   546       -0.10      5.37202
 C    27 -- C   352       -0.10      5.37202
 C    26 -- C   351       -0.10      5.37202
 C    55 -- C   335       -0.10      5.37202
 C    54 -- C   334       -0.10      5.37202
 C    53 -- C   333       -0.10      5.37202
 C   230 -- C   580       -0.10      5.37202
 C   230 -- C   525       -0.10      5.37202
 C   229 -- C   579       -0.10      5.37202
 C   229 -- C   524       -0.10      5.37202
 C   228 -- C   578       -0.10      5.37202
 C    52 -- C   332       -0.10      5.37202
 C   228 -- C   523       -0.10      5.37202
 C   227 -- C   577       -0.10      5.37202
 C   227 -- C   522       -0.10      5.37202
 C   226 -- C   576       -0.10      5.37202
 C   226 -- C   521       -0.10      5.37202
 C    51 -- C   331       -0.10      5.37202
 C   220 -- C   515       -0.10      5.37202
 C   219 -- C   514       -0.10      5.37202
 C   218 -- C   513       -0.10      5.37202
 C   217 -- C   512       -0.10      5.37202
 C   216 -- C   511       -0.10      5.37202
 C   195 -- C   540       -0.10      5.37202
 C   195 -- C   500       -0.10      5.37202
 C   194 -- C   539       -0.10      5.37202
 C   194 -- C   499       -0.10      5.37202
 C   193 -- C   538       -0.10      5.37202
 C   193 -- C   498       -0.10      5.37202
 C   192 -- C   537       -0.10      5.37202
 C   192 -- C   497       -0.10      5.37202
 C   191 -- C   536       -0.10      5.37202
 C   191 -- C   496       -0.10      5.37202
 C   180 -- C   515       -0.10      5.37202
 C   179 -- C   514       -0.10      5.37202
 C   178 -- C   513       -0.10      5.37202
 C   177 -- C   512       -0.10      5.37202
 C   176 -- C   511       -0.10      5.37202
 C   150 -- C   440       -0.10      5.37202
 C   149 -- C   439       -0.10      5.37202
 C   148 -- C   438       -0.10      5.37202
 C   147 -- C   437       -0.10      5.37202
 C   146 -- C   436       -0.10      5.37202
 C   135 -- C   460       -0.10      5.37202
 C   134 -- C   459       -0.10      5.37202
 C   133 -- C   458       -0.10      5.37202
 C   132 -- C   457       -0.10      5.37202
 C   131 -- C   456       -0.10      5.37202
 C    11 -- C   331       -0.10      5.37202
 C    95 -- C   425       -0.10      5.37202
 C    94 -- C   424       -0.10      5.37202
 C    93 -- C   423       -0.10      5.37202
 C    92 -- C   422       -0.10      5.37202
 C    91 -- C   421       -0.10      5.37202
 C    85 -- C   355       -0.10      5.37202
 C    40 -- C   365       -0.10      5.37202
 C    84 -- C   354       -0.10      5.37202
 C    83 -- C   353       -0.10      5.37202
 C    82 -- C   352       -0.10      5.37202
 C    39 -- C   364       -0.10      5.37202
 C    81 -- C   351       -0.10      5.37202
 C    38 -- C   363       -0.10      5.37202
 C    37 -- C   362       -0.10      5.37202
 C    36 -- C   361       -0.10      5.37202
 C    15 -- C   335       -0.10      5.37202
 C    65 -- C   345       -0.10      5.37202
 C    64 -- C   344       -0.10      5.37202
 C    63 -- C   343       -0.10      5.37202
 C    30 -- C   325       -0.10      5.37202
 C    62 -- C   342       -0.10      5.37202
 C    14 -- C   334       -0.10      5.37202
 C    61 -- C   341       -0.10      5.37202
 C    29 -- C   324       -0.10      5.37202
 C    28 -- C   323       -0.10      5.37202
 C    13 -- C   333       -0.10      5.37202
 C    27 -- C   322       -0.10      5.37202
 C   120 -- C   395       -0.10      5.37202
 C    55 -- C   385       -0.10      5.37202
 C   119 -- C   394       -0.10      5.37202
 C   118 -- C   393       -0.10      5.37202
 C   117 -- C   392       -0.10      5.37202
 C    54 -- C   384       -0.10      5.37202
 C    26 -- C   321       -0.10      5.37202
 C   116 -- C   391       -0.10      5.37202
 C    53 -- C   383       -0.10      5.37202
 C    12 -- C   332       -0.10      5.37202
 C    52 -- C   382       -0.10      5.37202
 C    51 -- C   381       -0.10      5.37202
 C   106 -- C   436       -0.10      5.37202
 C   106 -- C   376       -0.10      5.37202
 C    80 -- C   410       -0.10      5.37202
 C    79 -- C   409       -0.10      5.37202
 C    78 -- C   408       -0.10      5.37202
 C    77 -- C   407       -0.10      5.37202
 C    76 -- C   406       -0.10      5.37202
 C   135 -- C   410       -0.10      5.37202
 C   134 -- C   409       -0.10      5.37202
 C   133 -- C   408       -0.10      5.37202
 C   132 -- C   407       -0.10      5.37202
 C   131 -- C   406       -0.10      5.37202
 C   110 -- C   440       -0.10      5.37202
 C   110 -- C   380       -0.10      5.37202
 C   109 -- C   439       -0.10      5.37202
 C   109 -- C   379       -0.10      5.37202
 C   108 -- C   438       -0.10      5.37202
 C   108 -- C   378       -0.10      5.37202
 C   107 -- C   437       -0.10      5.37202
 C   107 -- C   377       -0.10      5.37202
 C   215 -- C   635       -0.10      5.38000
 C   214 -- C   634       -0.10      5.38000
 C   213 -- C   633       -0.10      5.38000
 C   212 -- C   632       -0.10      5.38000
 C   211 -- C   631       -0.10      5.38000
 C   190 -- C   620       -0.10      5.38000
 C   189 -- C   619       -0.10      5.38000
 C   188 -- C   618       -0.10      5.38000
 C   187 -- C   617       -0.10      5.38000
 C   186 -- C   616       -0.10      5.38000
 C   175 -- C   595       -0.10      5.38000
 C   174 -- C   594       -0.10      5.38000
 C   173 -- C   593       -0.10      5.38000
 C   172 -- C   592       -0.10      5.38000
 C   171 -- C   591       -0.10      5.38000
 C   245 -- C   640       -0.10      5.38000
 C   244 -- C   639       -0.10      5.38000
 C   243 -- C   638       -0.10      5.38000
 C   242 -- C   637       -0.10      5.38000
 C   241 -- C   636       -0.10      5.38000
==================================================


=================== Orbital energy and occupancy information ===================

      Total number of orbitals:    2560
        Occupancy sum (kernel):    1280.000000000
   Occupancy sum (eigenvalues):    1280.000000000
                 HOMO-LUMO gap:       0.062183719 Eh
                 Mid-gap level:       0.284960082 Eh

                        Orbital | Energy (Eh) | Occupancy
                            1    -0.443151602   1.0000000
                        .......   ...........   .........
                         1271     0.248613858   0.9999870
                         1272     0.248646824   0.9999868
                         1273     0.249083866   0.9999849
                         1274     0.249116821   0.9999847
                         1275     0.253009042   0.9999478
                         1276     0.253013243   0.9999477
                         1277     0.253446643   0.9999401
                         1278     0.253450057   0.9999400
                         1279     0.253450994   0.9999400
                         1280     0.253868223   0.9999315
                        ....... -- gap at 0K -- .........
                         1281     0.316051942   0.0000432
                         1282     0.316066475   0.0000430
                         1283     0.316307505   0.0000398
                         1284     0.316321700   0.0000397
                         1285     0.317182774   0.0000304
                         1286     0.317193368   0.0000302
                         1287     0.317456635   0.0000278
                         1288     0.317467097   0.0000277
                         1289     0.317940407   0.0000239
                         1290     0.318221257   0.0000219
                        .......   ...........   .........
                         2560     1.176996588   0.0000000

================================================================================

===================== Writing canonical molecular orbitals =====================
| Orbital  Energy (eV)  Norm     |
| HOMO      6.90810585  1.000000 | Writing "3.1661816_GO_manual_4x64graphite_HOMO.cube" ... done
Writing "3.1661816_GO_manual_4x64graphite_HOMO.dx" ... done
| LUMO      8.60021094  1.000000 | Writing "3.1661816_GO_manual_4x64graphite_LUMO.cube" ... done
Writing "3.1661816_GO_manual_4x64graphite_LUMO.dx" ... done
================================================================================
 
===================== Density of States (DOS) calculation ======================
Writing "3.1661816_GO_manual_4x64graphite_DOS.txt" ...  done
================================================================================
 
Writing bands to file "3.1661816_GO_manual_4x64graphite.val_bands" ... done
 
================ Projected Density of States (pDOS) calculation ================
 
Constructing AM resolved functions  ...... done
Writing NGWF plot files in formats: CUBE DX ...  done
 
Performing overlap integrals ...  done
 
Computing pDOS weights ...  done
 
All bands spilling parameter =   3.91 %
Occupancy-weighted spilling parameter =   0.82 %
 
 => Outputting data for OptaDOS <=
 
Writing pDOS weights to file "3.1661816_GO_manual_4x64graphite.val_pdos_bin" ... done
 
Writing band gradients to file "3.1661816_GO_manual_4x64graphite.val_dome_bin" ... done
 
Writing Castep output cell file to "3.1661816_GO_manual_4x64graphite-out.cell" ... done
 
 => Computing Gaussian smeared pDOS <= 
Writing "3.1661816_GO_manual_4x64graphite_PDOS.txt" ...  done
 
 => Computing Occupancy-weighted Gaussian smeared pDOS <= 
Writing "3.1661816_GO_manual_4x64graphite_occ_PDOS.txt" ...  done
  => Band centres: 
 S band centre of group 1:  -13.852812 eV
 P band centre of group 1:   -6.750065 eV
  Band centres done. <=
  => Integrated number of electrons in each AM band: 
 S num electrons of group 1:  575.898214
 P num electrons of group 1: 1963.050531
  Integrated number of electrons done. <=
================================================================================

------------------------------ TIMING INFORMATION ------------------------------
AVERAGE TIME:    4645.269s on     40 node(s)                                    
TOTAL TIME:      4645.270s on     40 node(s)                                    
================= AVERAGE TIMINGS FROM ALL NODES (CUMULATIVE) ==================
|| TAG                                    #calls    cpu time   %total  Gflops ||
|| work_imbalance                       :     1        0.00s   0.000%  ------ ||
|| paw_tcore_hartree_on_grid            :     1        0.00s   0.000%  ------ ||
|| paw_tcore_density                    :     1        0.01s   0.000%  ------ ||
|| paw_sphere_density_on_grid           :     1        0.01s   0.000%  ------ ||
|| sparse_set_to_garbage                :   183        0.03s   0.001%  ------ ||
|| pseudo_make_structure_factor         :     1        0.05s   0.001%  ------ ||
|| paw_dij_hartree                      :   416        0.05s   0.001%  ------ ||
|| basis_extract_function_from_box      :  2048        0.09s   0.002%  ------ ||
|| paw_species_calc_proj_prec_mat       :     1        0.12s   0.003%  ------ ||
|| paw_dataset_init                     :     1        0.15s   0.003%  ------ ||
|| density_init_guess_real              :     1        0.29s   0.006%  ------ ||
|| ngwfs_initialise_from_radial         :     2        0.67s   0.014%  ------ ||
|| restart_kernel_write                 :    17        0.79s   0.017%  ------ ||
|| dense_normal_eigensolve              :     1        0.96s   0.021%  ------ ||
|| sparse_init                          :     1        0.97s   0.021%  ------ ||
|| hartree_on_grid                      :   312        1.67s   0.036%  ------ ||
|| ewald_calculate_energy               :     1        2.32s   0.050%  ------ ||
|| projectors_init_fftbox_recip         :   161        3.13s   0.067%  ------ ||
|| fourier_apply_box_pair               :  3040        5.02s   0.108% 562.022 ||
|| basis_copy_function_to_box           : 29376        6.37s   0.137%  ------ ||
|| sw_init                              :     1        6.73s   0.145%  ------ ||
|| augmentation_screen_dij              :   319        6.95s   0.150%  ------ ||
|| sparse_embed_hotelling_invert_embed  :    31        9.13s   0.197%  ------ ||
|| ngwf_gradient_coeffs                 :    16       12.66s   0.272%  ------ ||
|| cell_grid_extract_box_real           : 12476       17.14s   0.369%  ------ ||
|| fourier_apply_cell_backward          :  9643       22.40s   0.482%  47.521 ||
|| sparse_trace                         :  3786       22.68s   0.488%  ------ ||
|| fourier_apply_cell_forward           :  9020       23.20s   0.500%  42.907 ||
|| cell_grid_deposit_box_real           : 40112       26.82s   0.577%  ------ ||
|| paw_dij_xc                           :   416       27.55s   0.593%  ------ ||
|| aug_nonlocal_mat                     :   400       42.37s   0.912%  ------ ||
|| density_fftbox_deposit_to_cell       : 19968       53.98s   1.162%  ------ ||
|| eigenstates_pdos                     :     1       54.02s   1.163%  ------ ||
|| eigenstates_calculate                :     1       58.14s   1.252%  ------ ||
|| augmentation_density_on_grid         :   312       61.38s   1.321%  ------ ||
|| hamiltonian_energy_components        :     4       67.63s   1.456%  ------ ||
|| function_ops_brappd_ketppd           :    64       68.25s   1.469%  ------ ||
|| projectors_func_ovlp_box             :    32       78.42s   1.688%  ------ ||
|| nlxc_vdw_energy                      :   622       89.21s   1.920%  ------ ||
|| xc_energy_potential                  :   311       95.31s   2.052%  ------ ||
|| properties_calculate                 :     1      104.31s   2.246%  ------ ||
|| integrals_kinetic                    :    31      117.08s   2.520%  ------ ||
|| dense_eigensolve                     :   276      129.02s   2.777%  ------ ||
|| restart_ngwfs_tightbox_output        :    15      144.07s   3.102%  ------ ||
|| potential_apply_to_ngwf_batch        :   396      154.96s   3.336%  ------ ||
|| sparse_product                       :  3755      168.76s   3.633%  ------ ||
|| basis_dot_function_with_box          : 9.790M     266.26s   5.732%  ------ ||
|| fourier_apply_box                    : 92000      286.78s   6.174% 980.985 ||
|| edft_diag_ngwf_ham                   :   275      298.04s   6.416%  ------ ||
|| projectors_gradient_batch            :    64      300.04s   6.459%  ------ ||
|| integrals_locpot_mat_els_batch       :   396      380.00s   8.180%  ------ ||
|| density_fftbox_interpolate_multiply  : 19968      386.98s   8.331%  ------ ||
|| projectors_grad_precond_batch        :    64      442.53s   9.526%  ------ ||
|| density_batch_interp_deposit         :  1248      490.62s  10.562%  ------ ||
|| integrals_locpot_dbl_grid            :    99      537.05s  11.561%  ------ ||
|| edft_apply_smearing_operator         :   275      589.61s  12.693%  ------ ||
|| basis_add_function_to_box            : 27.63M     717.49s  15.446%  ------ ||
|| ngwf_gradient_build_batch            :    64      791.01s  17.028%  ------ ||
|| ngwf_gradient_batch                  :    64     1049.37s  22.590%  ------ ||
|| density_batch_row_sums               :  1248     1078.89s  23.226%  ------ ||
|| ngwf_gradient_lnv                    :    16     1081.70s  23.286%  ------ ||
|| density_on_dbl_grid                  :   312     1587.17s  34.167%  ------ ||
|| hamiltonian_lhxc_calculate           :   306     1717.09s  36.964%  ------ ||
|| edft_calculate                       :    16     2833.45s  60.996%  ------ ||
|| ngwf_cg_optimise                     :     1     4515.07s  97.197%  ------ ||
|| total_time                           :     1     4645.27s 100.000%  ------ ||
================================================================================
Overhead of generating timer report: 
- 0 ms averaging over threads,
- 5 ms ensuring consistency across MPI ranks,
- 0 ms printing in order.

Job completed: 24-02-2020 22:10 (-0000)

