 +---------------------------------------------------------------+
 |                                                               |
 |        ####### #     # ####### ####### ####### ######         |
 |        #     # ##    # #          #    #       #     #        |
 |        #     # # #   # #          #    #       #     #        |
 |        #     # #  #  # #####      #    #####   ######         |
 |        #     # #   # # #          #    #       #              |
 |        #     # #    ## #          #    #       #              |
 |        ####### #     # #######    #    ####### #              |
 |                                                               |
 |        Linear-Scaling Ab Initio Total Energy Program          |
 |                                                               |
 |          Release for academic collaborators of ODG            |
 |                                             Version 5.3.2.12  |
 |                                                               |
 +---------------------------------------------------------------+
 |                                                               |
 |  Authors:                                                     |
 |  Jacek Dziedzic, Peter D. Haynes, Nicholas D. M. Hine,        |
 |  Arash. A. Mostofi, Mike C. Payne and Chris-Kriton Skylaris   |
 |                                                               |
 |  Contributors:                                                |
 |  J. Aarons, L. Andrinopoulos, P. W. Avraam, R. A. Bell,       |
 |  A. Bhandari, G. A. Bramley, R. J. Charlton, S. J. Clark,     |
 |  R. J. Clements, G. C. Constantinescu, F. Corsetti,           |
 |  N. Corsini, O. Dieguez, S. M. M. Dubois, K. K. B. Duff,      |
 |  J. M. Escartin, A. Greco, H. Helal, Q. O. Hill, L. P. Lee,   |
 |  J.-H. Li, E. B. Linscott, G. Moynihan, D. D. O`Regan,        |
 |  O. K. Okan, M. J. S. Phipps, C. J. Pickard,                  |
 |  J. C. A. Prentice, M. I. J. Probert, L. E. Ratcliff,         |
 |  M. Robinson, A. Ruiz Serrano, J. S. Spencer, E. W. Tait,     |
 |  G. Teobaldi, D. Turban, V. Vitale, K. A. Wilkinson,          |
 |  C. Weber, J. C. Womack, N. Yeung and T. J. Zuehlsdorff       |
 |                                                               |
 |                                   Copyright (c) 2004-2020     |
 |                                                               |
 |  Please cite:                                                 |
 |  "Introducing ONETEP: Linear-scaling density functional       |
 |   simulations on parallel computers".                         |
 |   C.-K. Skylaris, P. D. Haynes, A. A. Mostofi, M. C. Payne.   |
 |   J. Chem. Phys. 122 084119 (2005).                           |
 |                                                               |
 |          in all publications arising from your use of ONETEP. |
 |                                                               |
 +---------------------------------------------------------------+
 |                                                               |
 |   ONETEP is based on developments described in the following  |
 |   publications:                                               |
 |                                                               |
 |  "Nonorthogonal generalized Wannier function pseudopotential  |
 |   plane-wave method".                                         |
 |   C.-K. Skylaris, A. A. Mostofi, P. D. Haynes, O. Dieguez,    |
 |   M. C. Payne.                                                |
 |   Phys. Rev. B 66 035119 (2002).                              |
 |                                                               |
 |  "Preconditioned iterative minimization for linear-scaling    |
 |   electronic structure calculations".                         |
 |   A. A. Mostofi, P. D. Haynes, C.-K. Skylaris, M. C. Payne.   |
 |   J. Chem. Phys. 119(17), pp.8842-8848 (2003).                |
 |                                                               |
 |  "Total-energy calculations on a real space grid with         |
 |   localized functions and a plane-wave basis".                |
 |   A. A. Mostofi, C.-K. Skylaris, P. D. Haynes, M. C. Payne.   |
 |   Comput. Phys. Commun. 147, pp.788-802 (2002).               |
 |                                                               |
 |  "Accurate kinetic energy evaluation in electronic structure  |
 |   calculations with localized functions on real space grids"  |
 |   C.-K. Skylaris, A. A. Mostofi, P. D. Haynes, C. J. Pickard, |
 |   M. C. Payne.                                                |
 |   Comput. Phys. Commun. 140, pp.315-322 (2001).               |
 |                                                               |
 |  "Accurate ionic forces and geometry optimization in linear-  |
 |   scaling density-functional theory with local orbitals"      |
 |   N. D. M. Hine, M. Robinson, P. D. Haynes, C.-K. Skylaris,   |
 |   M. C. Payne, and A. A. Mostofi.                             |
 |   Phys. Rev. B 83 195102 (2011).                              |
 |                                                               |
 +---------------------------------------------------------------+

Job started: 24-02-2020 21:08 (-0000)
 
Reading parameters from file "3.219844_GO_manual_4x64graphite.dat" ...

WARNING: "cutoff_energy" not specified, but "psinc_spacing" specified.
         Using the latter to set the KE cutoff energy to  732.32021eV,
         thus *overriding* the default.

... done

If your calculation crashes here, before "Checking processes and threads..."
is displayed, then your stack size is insufficient.
If so, use "ulimit -s unlimited" at runtime.
You can disable this check with "check_stack_size F".

Checking processes and threads...
   Determining the default number of threads...
      No default threads set at compilation time: defaulting to 1.
      OpenMP library call suggests 4 threads.
      Hybrid MPI-OpenMP compilation detected.
      Number of MPI processes > 1.
      OMP_NUM_THREADS environment variable present and
      its value matches the one obtained from the OpenMP library call.
      Using this value as default.
      Default threads: 4
      Default applies to threads_max and threads_num_fftboxes.
      Settings in the input file override this default.
   ... done

   Running with 40 MPI processes.
   There are 10 MPI processes running on the same node as the root process.
   Each MPI process is using: 
               1 threads for simulation cell FFTs.
               1 threads for parallel FFT box operations.
               4 threads for loops over batched FFT box operations.
               4 threads in other parallel regions.
... done

Basic input checks...
Resetting ngwf_cg_rotate to TRUE for EDFT calculations
... done

Reading geometry and species blocks from file "3.219844_GO_manual_4x64graphite.dat" ...
    
  PSINC grid spacing along a1 set to   0.511215680000a0 from input file.
  PSINC grid spacing along a2 set to   0.531284090000a0 from input file.
  PSINC grid spacing along a3 set to   0.507052980000a0 from input file.
  Number of PPD points along a3 set to 1.  This is 
  the default value, it may have been provided also in the input file.
... done
 Writing xyz coordinates to file "3.219844_GO_manual_4x64graphite.xyz" ... done


--------------------------------------------------------------------------------
---------------------------------- INPUT FILE ----------------------------------
--------------------------------------------------------------------------------

task : singlepoint                                                              
do_properties : true                                                            
dx_format T                                                                     
edft T                                                                          
output_detail VERBOSE                                                           
write_xyz T                                                                     
xc_functional OPTPBE                                                            
PSINC_SPACING 0.51121568 0.53128409 0.50705298                                  
paw T                                                                           
pdos_max_l = 2                                                                  
dos_smear  0.1 eV                                                               
popn_calculate T                                                                
PDOS_PSEUDOATOMIC T                                                             
PDOS_REDUCE_SWS F                                                               
PDOS_CONSTRUCT_BASIS F                                                          
PDOS_LOWDIN T                                                                   
PDOS_ORTH_ATOM_BLOCKS F                                                         
PDOS_LCAO_OPTIMIZE F                                                            
pdos_optados_output T                                                           
homo_plot 0                                                                     
lumo_plot 0                                                                     
homo_dens_plot -1                                                               
lumo_dens_plot -1                                                               
%BLOCK SPECIES                                                                  
C C 6 4 9.0                                                                     
%ENDBLOCK SPECIES                                                               
%BLOCK SPECIES_POT                                                              
C "~/pp/paw/c_pbe_abinit.paw"                                                   
%ENDBLOCK SPECIES_POT                                                           
%BLOCK SPECIES_ATOMIC_SET                                                       
C "SOLVE conf=2s2 2p2"                                                          
%ENDBLOCK SPECIES_ATOMIC_SET                                                    
%BLOCK LATTICE_CART                                                             
32.21  0.00  0.00                                                               
0.00 18.59  0.00                                                                
0.00  0.00 60.85                                                                
%ENDBLOCK LATTICE_CART                                                          
%BLOCK POSITIONS_ABS                                                            
C  0.00  0.00  3.04                                                             
C  0.00  0.00 15.21                                                             
C  0.00  0.00 27.38                                                             
C  0.00  0.00 39.55                                                             
C  0.00  0.00 51.72                                                             
C  0.00  4.65  3.04                                                             
C  0.00  4.65 15.21                                                             
C  0.00  4.65 27.38                                                             
C  0.00  4.65 39.55                                                             
C  0.00  4.65 51.72                                                             
C  4.03  2.32  3.04                                                             
C  4.03  2.32 15.21                                                             
C  4.03  2.32 27.38                                                             
C  4.03  2.32 39.55                                                             
C  4.03  2.32 51.72                                                             
C  8.05  0.00  3.04                                                             
C  8.05  0.00 15.21                                                             
C  8.05  0.00 27.38                                                             
C  8.05  0.00 39.55                                                             
C  8.05  0.00 51.72                                                             
C  0.00  9.30  3.04                                                             
C  0.00  9.30 15.21                                                             
C  0.00  9.30 27.38                                                             
C  0.00  9.30 39.55                                                             
C  0.00  9.30 51.72                                                             
C  4.03  6.97  3.04                                                             
C  4.03  6.97 15.21                                                             
C  4.03  6.97 27.38                                                             
C  4.03  6.97 39.55                                                             
C  4.03  6.97 51.72                                                             
C  8.05  4.65  3.04                                                             
C  8.05  4.65 15.21                                                             
C  8.05  4.65 27.38                                                             
C  8.05  4.65 39.55                                                             
C  8.05  4.65 51.72                                                             
C 12.08  2.32  3.04                                                             
C 12.08  2.32 15.21                                                             
C 12.08  2.32 27.38                                                             
C 12.08  2.32 39.55                                                             
C 12.08  2.32 51.72                                                             
C 16.10  0.00  3.04                                                             
C 16.10  0.00 15.21                                                             
C 16.10  0.00 27.38                                                             
C 16.10  0.00 39.55                                                             
C 16.10  0.00 51.72                                                             
C  0.00 13.95  3.04                                                             
C  0.00 13.95 15.21                                                             
C  0.00 13.95 27.38                                                             
C  0.00 13.95 39.55                                                             
C  0.00 13.95 51.72                                                             
C  4.03 11.62  3.04                                                             
C  4.03 11.62 15.21                                                             
C  4.03 11.62 27.38                                                             
C  4.03 11.62 39.55                                                             
C  4.03 11.62 51.72                                                             
C  8.05  9.30  3.04                                                             
C  8.05  9.30 15.21                                                             
C  8.05  9.30 27.38                                                             
C  8.05  9.30 39.55                                                             
C  8.05  9.30 51.72                                                             
C 12.08  6.97  3.04                                                             
C 12.08  6.97 15.21                                                             
C 12.08  6.97 27.38                                                             
C 12.08  6.97 39.55                                                             
C 12.08  6.97 51.72                                                             
C 16.10  4.65  3.04                                                             
C 16.10  4.65 15.21                                                             
C 16.10  4.65 27.38                                                             
C 16.10  4.65 39.55                                                             
C 16.10  4.65 51.72                                                             
C 20.13  2.32  3.04                                                             
C 20.13  2.32 15.21                                                             
C 20.13  2.32 27.38                                                             
C 20.13  2.32 39.55                                                             
C 20.13  2.32 51.72                                                             
C 24.16  0.00  3.04                                                             
C 24.16  0.00 15.21                                                             
C 24.16  0.00 27.38                                                             
C 24.16  0.00 39.55                                                             
C 24.16  0.00 51.72                                                             
C  4.03 16.27  3.04                                                             
C  4.03 16.27 15.21                                                             
C  4.03 16.27 27.38                                                             
C  4.03 16.27 39.55                                                             
C  4.03 16.27 51.72                                                             
C  8.05 13.95  3.04                                                             
C  8.05 13.95 15.21                                                             
C  8.05 13.95 27.38                                                             
C  8.05 13.95 39.55                                                             
C  8.05 13.95 51.72                                                             
C 12.08 11.62  3.04                                                             
C 12.08 11.62 15.21                                                             
C 12.08 11.62 27.38                                                             
C 12.08 11.62 39.55                                                             
C 12.08 11.62 51.72                                                             
C 16.10  9.30  3.04                                                             
C 16.10  9.30 15.21                                                             
C 16.10  9.30 27.38                                                             
C 16.10  9.30 39.55                                                             
C 16.10  9.30 51.72                                                             
C 20.13  6.97  3.04                                                             
C 20.13  6.97 15.21                                                             
C 20.13  6.97 27.38                                                             
C 20.13  6.97 39.55                                                             
C 20.13  6.97 51.72                                                             
C 24.16  4.65  3.04                                                             
C 24.16  4.65 15.21                                                             
C 24.16  4.65 27.38                                                             
C 24.16  4.65 39.55                                                             
C 24.16  4.65 51.72                                                             
C 28.18  2.32  3.04                                                             
C 28.18  2.32 15.21                                                             
C 28.18  2.32 27.38                                                             
C 28.18  2.32 39.55                                                             
C 28.18  2.32 51.72                                                             
C 12.08 16.27  3.04                                                             
C 12.08 16.27 15.21                                                             
C 12.08 16.27 27.38                                                             
C 12.08 16.27 39.55                                                             
C 12.08 16.27 51.72                                                             
C 16.10 13.95  3.04                                                             
C 16.10 13.95 15.21                                                             
C 16.10 13.95 27.38                                                             
C 16.10 13.95 39.55                                                             
C 16.10 13.95 51.72                                                             
C 20.13 11.62  3.04                                                             
C 20.13 11.62 15.21                                                             
C 20.13 11.62 27.38                                                             
C 20.13 11.62 39.55                                                             
C 20.13 11.62 51.72                                                             
C 24.16  9.30  3.04                                                             
C 24.16  9.30 15.21                                                             
C 24.16  9.30 27.38                                                             
C 24.16  9.30 39.55                                                             
C 24.16  9.30 51.72                                                             
C 28.18  6.97  3.04                                                             
C 28.18  6.97 15.21                                                             
C 28.18  6.97 27.38                                                             
C 28.18  6.97 39.55                                                             
C 28.18  6.97 51.72                                                             
C 20.13 16.27  3.04                                                             
C 20.13 16.27 15.21                                                             
C 20.13 16.27 27.38                                                             
C 20.13 16.27 39.55                                                             
C 20.13 16.27 51.72                                                             
C 24.16 13.95  3.04                                                             
C 24.16 13.95 15.21                                                             
C 24.16 13.95 27.38                                                             
C 24.16 13.95 39.55                                                             
C 24.16 13.95 51.72                                                             
C 28.18 11.62  3.04                                                             
C 28.18 11.62 15.21                                                             
C 28.18 11.62 27.38                                                             
C 28.18 11.62 39.55                                                             
C 28.18 11.62 51.72                                                             
C 28.18 16.27  3.04                                                             
C 28.18 16.27 15.21                                                             
C 28.18 16.27 27.38                                                             
C 28.18 16.27 39.55                                                             
C 28.18 16.27 51.72                                                             
C  0.00  0.00  9.13                                                             
C  0.00  0.00 21.30                                                             
C  0.00  0.00 33.47                                                             
C  0.00  0.00 45.63                                                             
C  0.00  0.00 57.80                                                             
C  0.00  4.65  9.13                                                             
C  0.00  4.65 21.30                                                             
C  0.00  4.65 33.47                                                             
C  0.00  4.65 45.63                                                             
C  0.00  4.65 57.80                                                             
C  4.03  2.32  9.13                                                             
C  4.03  2.32 21.30                                                             
C  4.03  2.32 33.47                                                             
C  4.03  2.32 45.63                                                             
C  4.03  2.32 57.80                                                             
C  8.05  0.00  9.13                                                             
C  8.05  0.00 21.30                                                             
C  8.05  0.00 33.47                                                             
C  8.05  0.00 45.63                                                             
C  8.05  0.00 57.80                                                             
C  0.00  9.30  9.13                                                             
C  0.00  9.30 21.30                                                             
C  0.00  9.30 33.47                                                             
C  0.00  9.30 45.63                                                             
C  0.00  9.30 57.80                                                             
C  4.03  6.97  9.13                                                             
C  4.03  6.97 21.30                                                             
C  4.03  6.97 33.47                                                             
C  4.03  6.97 45.63                                                             
C  4.03  6.97 57.80                                                             
C  8.05  4.65  9.13                                                             
C  8.05  4.65 21.30                                                             
C  8.05  4.65 33.47                                                             
C  8.05  4.65 45.63                                                             
C  8.05  4.65 57.80                                                             
C 12.08  2.32  9.13                                                             
C 12.08  2.32 21.30                                                             
C 12.08  2.32 33.47                                                             
C 12.08  2.32 45.63                                                             
C 12.08  2.32 57.80                                                             
C 16.10  0.00  9.13                                                             
C 16.10  0.00 21.30                                                             
C 16.10  0.00 33.47                                                             
C 16.10  0.00 45.63                                                             
C 16.10  0.00 57.80                                                             
C  0.00 13.95  9.13                                                             
C  0.00 13.95 21.30                                                             
C  0.00 13.95 33.47                                                             
C  0.00 13.95 45.63                                                             
C  0.00 13.95 57.80                                                             
C  4.03 11.62  9.13                                                             
C  4.03 11.62 21.30                                                             
C  4.03 11.62 33.47                                                             
C  4.03 11.62 45.63                                                             
C  4.03 11.62 57.80                                                             
C  8.05  9.30  9.13                                                             
C  8.05  9.30 21.30                                                             
C  8.05  9.30 33.47                                                             
C  8.05  9.30 45.63                                                             
C  8.05  9.30 57.80                                                             
C 12.08  6.97  9.13                                                             
C 12.08  6.97 21.30                                                             
C 12.08  6.97 33.47                                                             
C 12.08  6.97 45.63                                                             
C 12.08  6.97 57.80                                                             
C 16.10  4.65  9.13                                                             
C 16.10  4.65 21.30                                                             
C 16.10  4.65 33.47                                                             
C 16.10  4.65 45.63                                                             
C 16.10  4.65 57.80                                                             
C 20.13  2.32  9.13                                                             
C 20.13  2.32 21.30                                                             
C 20.13  2.32 33.47                                                             
C 20.13  2.32 45.63                                                             
C 20.13  2.32 57.80                                                             
C 24.16  0.00  9.13                                                             
C 24.16  0.00 21.30                                                             
C 24.16  0.00 33.47                                                             
C 24.16  0.00 45.63                                                             
C 24.16  0.00 57.80                                                             
C  4.03 16.27  9.13                                                             
C  4.03 16.27 21.30                                                             
C  4.03 16.27 33.47                                                             
C  4.03 16.27 45.63                                                             
C  4.03 16.27 57.80                                                             
C  8.05 13.95  9.13                                                             
C  8.05 13.95 21.30                                                             
C  8.05 13.95 33.47                                                             
C  8.05 13.95 45.63                                                             
C  8.05 13.95 57.80                                                             
C 12.08 11.62  9.13                                                             
C 12.08 11.62 21.30                                                             
C 12.08 11.62 33.47                                                             
C 12.08 11.62 45.63                                                             
C 12.08 11.62 57.80                                                             
C 16.10  9.30  9.13                                                             
C 16.10  9.30 21.30                                                             
C 16.10  9.30 33.47                                                             
C 16.10  9.30 45.63                                                             
C 16.10  9.30 57.80                                                             
C 20.13  6.97  9.13                                                             
C 20.13  6.97 21.30                                                             
C 20.13  6.97 33.47                                                             
C 20.13  6.97 45.63                                                             
C 20.13  6.97 57.80                                                             
C 24.16  4.65  9.13                                                             
C 24.16  4.65 21.30                                                             
C 24.16  4.65 33.47                                                             
C 24.16  4.65 45.63                                                             
C 24.16  4.65 57.80                                                             
C 28.18  2.32  9.13                                                             
C 28.18  2.32 21.30                                                             
C 28.18  2.32 33.47                                                             
C 28.18  2.32 45.63                                                             
C 28.18  2.32 57.80                                                             
C 12.08 16.27  9.13                                                             
C 12.08 16.27 21.30                                                             
C 12.08 16.27 33.47                                                             
C 12.08 16.27 45.63                                                             
C 12.08 16.27 57.80                                                             
C 16.10 13.95  9.13                                                             
C 16.10 13.95 21.30                                                             
C 16.10 13.95 33.47                                                             
C 16.10 13.95 45.63                                                             
C 16.10 13.95 57.80                                                             
C 20.13 11.62  9.13                                                             
C 20.13 11.62 21.30                                                             
C 20.13 11.62 33.47                                                             
C 20.13 11.62 45.63                                                             
C 20.13 11.62 57.80                                                             
C 24.16  9.30  9.13                                                             
C 24.16  9.30 21.30                                                             
C 24.16  9.30 33.47                                                             
C 24.16  9.30 45.63                                                             
C 24.16  9.30 57.80                                                             
C 28.18  6.97  9.13                                                             
C 28.18  6.97 21.30                                                             
C 28.18  6.97 33.47                                                             
C 28.18  6.97 45.63                                                             
C 28.18  6.97 57.80                                                             
C 20.13 16.27  9.13                                                             
C 20.13 16.27 21.30                                                             
C 20.13 16.27 33.47                                                             
C 20.13 16.27 45.63                                                             
C 20.13 16.27 57.80                                                             
C 24.16 13.95  9.13                                                             
C 24.16 13.95 21.30                                                             
C 24.16 13.95 33.47                                                             
C 24.16 13.95 45.63                                                             
C 24.16 13.95 57.80                                                             
C 28.18 11.62  9.13                                                             
C 28.18 11.62 21.30                                                             
C 28.18 11.62 33.47                                                             
C 28.18 11.62 45.63                                                             
C 28.18 11.62 57.80                                                             
C 28.18 16.27  9.13                                                             
C 28.18 16.27 21.30                                                             
C 28.18 16.27 33.47                                                             
C 28.18 16.27 45.63                                                             
C 28.18 16.27 57.80                                                             
C  1.34  2.32  3.04                                                             
C  1.34  2.32 15.21                                                             
C  1.34  2.32 27.38                                                             
C  1.34  2.32 39.55                                                             
C  1.34  2.32 51.72                                                             
C  5.37  0.00  3.04                                                             
C  5.37  0.00 15.21                                                             
C  5.37  0.00 27.38                                                             
C  5.37  0.00 39.55                                                             
C  5.37  0.00 51.72                                                             
C  1.34  6.97  3.04                                                             
C  1.34  6.97 15.21                                                             
C  1.34  6.97 27.38                                                             
C  1.34  6.97 39.55                                                             
C  1.34  6.97 51.72                                                             
C  5.37  4.65  3.04                                                             
C  5.37  4.65 15.21                                                             
C  5.37  4.65 27.38                                                             
C  5.37  4.65 39.55                                                             
C  5.37  4.65 51.72                                                             
C  9.39  2.32  3.04                                                             
C  9.39  2.32 15.21                                                             
C  9.39  2.32 27.38                                                             
C  9.39  2.32 39.55                                                             
C  9.39  2.32 51.72                                                             
C 13.42  0.00  3.04                                                             
C 13.42  0.00 15.21                                                             
C 13.42  0.00 27.38                                                             
C 13.42  0.00 39.55                                                             
C 13.42  0.00 51.72                                                             
C  1.34 11.62  3.04                                                             
C  1.34 11.62 15.21                                                             
C  1.34 11.62 27.38                                                             
C  1.34 11.62 39.55                                                             
C  1.34 11.62 51.72                                                             
C  5.37  9.30  3.04                                                             
C  5.37  9.30 15.21                                                             
C  5.37  9.30 27.38                                                             
C  5.37  9.30 39.55                                                             
C  5.37  9.30 51.72                                                             
C  9.39  6.97  3.04                                                             
C  9.39  6.97 15.21                                                             
C  9.39  6.97 27.38                                                             
C  9.39  6.97 39.55                                                             
C  9.39  6.97 51.72                                                             
C 13.42  4.65  3.04                                                             
C 13.42  4.65 15.21                                                             
C 13.42  4.65 27.38                                                             
C 13.42  4.65 39.55                                                             
C 13.42  4.65 51.72                                                             
C 17.45  2.32  3.04                                                             
C 17.45  2.32 15.21                                                             
C 17.45  2.32 27.38                                                             
C 17.45  2.32 39.55                                                             
C 17.45  2.32 51.72                                                             
C 21.47  0.00  3.04                                                             
C 21.47  0.00 15.21                                                             
C 21.47  0.00 27.38                                                             
C 21.47  0.00 39.55                                                             
C 21.47  0.00 51.72                                                             
C  1.34 16.27  3.04                                                             
C  1.34 16.27 15.21                                                             
C  1.34 16.27 27.38                                                             
C  1.34 16.27 39.55                                                             
C  1.34 16.27 51.72                                                             
C  5.37 13.95  3.04                                                             
C  5.37 13.95 15.21                                                             
C  5.37 13.95 27.38                                                             
C  5.37 13.95 39.55                                                             
C  5.37 13.95 51.72                                                             
C  9.39 11.62  3.04                                                             
C  9.39 11.62 15.21                                                             
C  9.39 11.62 27.38                                                             
C  9.39 11.62 39.55                                                             
C  9.39 11.62 51.72                                                             
C 13.42  9.30  3.04                                                             
C 13.42  9.30 15.21                                                             
C 13.42  9.30 27.38                                                             
C 13.42  9.30 39.55                                                             
C 13.42  9.30 51.72                                                             
C 17.45  6.97  3.04                                                             
C 17.45  6.97 15.21                                                             
C 17.45  6.97 27.38                                                             
C 17.45  6.97 39.55                                                             
C 17.45  6.97 51.72                                                             
C 21.47  4.65  3.04                                                             
C 21.47  4.65 15.21                                                             
C 21.47  4.65 27.38                                                             
C 21.47  4.65 39.55                                                             
C 21.47  4.65 51.72                                                             
C 25.50  2.32  3.04                                                             
C 25.50  2.32 15.21                                                             
C 25.50  2.32 27.38                                                             
C 25.50  2.32 39.55                                                             
C 25.50  2.32 51.72                                                             
C 29.52  0.00  3.04                                                             
C 29.52  0.00 15.21                                                             
C 29.52  0.00 27.38                                                             
C 29.52  0.00 39.55                                                             
C 29.52  0.00 51.72                                                             
C  9.39 16.27  3.04                                                             
C  9.39 16.27 15.21                                                             
C  9.39 16.27 27.38                                                             
C  9.39 16.27 39.55                                                             
C  9.39 16.27 51.72                                                             
C 13.42 13.95  3.04                                                             
C 13.42 13.95 15.21                                                             
C 13.42 13.95 27.38                                                             
C 13.42 13.95 39.55                                                             
C 13.42 13.95 51.72                                                             
C 17.45 11.62  3.04                                                             
C 17.45 11.62 15.21                                                             
C 17.45 11.62 27.38                                                             
C 17.45 11.62 39.55                                                             
C 17.45 11.62 51.72                                                             
C 21.47  9.30  3.04                                                             
C 21.47  9.30 15.21                                                             
C 21.47  9.30 27.38                                                             
C 21.47  9.30 39.55                                                             
C 21.47  9.30 51.72                                                             
C 25.50  6.97  3.04                                                             
C 25.50  6.97 15.21                                                             
C 25.50  6.97 27.38                                                             
C 25.50  6.97 39.55                                                             
C 25.50  6.97 51.72                                                             
C 29.52  4.65  3.04                                                             
C 29.52  4.65 15.21                                                             
C 29.52  4.65 27.38                                                             
C 29.52  4.65 39.55                                                             
C 29.52  4.65 51.72                                                             
C 17.45 16.27  3.04                                                             
C 17.45 16.27 15.21                                                             
C 17.45 16.27 27.38                                                             
C 17.45 16.27 39.55                                                             
C 17.45 16.27 51.72                                                             
C 21.47 13.95  3.04                                                             
C 21.47 13.95 15.21                                                             
C 21.47 13.95 27.38                                                             
C 21.47 13.95 39.55                                                             
C 21.47 13.95 51.72                                                             
C 25.50 11.62  3.04                                                             
C 25.50 11.62 15.21                                                             
C 25.50 11.62 27.38                                                             
C 25.50 11.62 39.55                                                             
C 25.50 11.62 51.72                                                             
C 29.52  9.30  3.04                                                             
C 29.52  9.30 15.21                                                             
C 29.52  9.30 27.38                                                             
C 29.52  9.30 39.55                                                             
C 29.52  9.30 51.72                                                             
C 25.50 16.27  3.04                                                             
C 25.50 16.27 15.21                                                             
C 25.50 16.27 27.38                                                             
C 25.50 16.27 39.55                                                             
C 25.50 16.27 51.72                                                             
C 29.52 13.95  3.04                                                             
C 29.52 13.95 15.21                                                             
C 29.52 13.95 27.38                                                             
C 29.52 13.95 39.55                                                             
C 29.52 13.95 51.72                                                             
C  2.68  0.00  9.13                                                             
C  2.68  0.00 21.30                                                             
C  2.68  0.00 33.47                                                             
C  2.68  0.00 45.63                                                             
C  2.68  0.00 57.80                                                             
C  2.68  4.65  9.13                                                             
C  2.68  4.65 21.30                                                             
C  2.68  4.65 33.47                                                             
C  2.68  4.65 45.63                                                             
C  2.68  4.65 57.80                                                             
C  6.71  2.32  9.13                                                             
C  6.71  2.32 21.30                                                             
C  6.71  2.32 33.47                                                             
C  6.71  2.32 45.63                                                             
C  6.71  2.32 57.80                                                             
C 10.74  0.00  9.13                                                             
C 10.74  0.00 21.30                                                             
C 10.74  0.00 33.47                                                             
C 10.74  0.00 45.63                                                             
C 10.74  0.00 57.80                                                             
C  2.68  9.30  9.13                                                             
C  2.68  9.30 21.30                                                             
C  2.68  9.30 33.47                                                             
C  2.68  9.30 45.63                                                             
C  2.68  9.30 57.80                                                             
C  6.71  6.97  9.13                                                             
C  6.71  6.97 21.30                                                             
C  6.71  6.97 33.47                                                             
C  6.71  6.97 45.63                                                             
C  6.71  6.97 57.80                                                             
C 10.74  4.65  9.13                                                             
C 10.74  4.65 21.30                                                             
C 10.74  4.65 33.47                                                             
C 10.74  4.65 45.63                                                             
C 10.74  4.65 57.80                                                             
C 14.76  2.32  9.13                                                             
C 14.76  2.32 21.30                                                             
C 14.76  2.32 33.47                                                             
C 14.76  2.32 45.63                                                             
C 14.76  2.32 57.80                                                             
C 18.79  0.00  9.13                                                             
C 18.79  0.00 21.30                                                             
C 18.79  0.00 33.47                                                             
C 18.79  0.00 45.63                                                             
C 18.79  0.00 57.80                                                             
C  2.68 13.95  9.13                                                             
C  2.68 13.95 21.30                                                             
C  2.68 13.95 33.47                                                             
C  2.68 13.95 45.63                                                             
C  2.68 13.95 57.80                                                             
C  6.71 11.62  9.13                                                             
C  6.71 11.62 21.30                                                             
C  6.71 11.62 33.47                                                             
C  6.71 11.62 45.63                                                             
C  6.71 11.62 57.80                                                             
C 10.74  9.30  9.13                                                             
C 10.74  9.30 21.30                                                             
C 10.74  9.30 33.47                                                             
C 10.74  9.30 45.63                                                             
C 10.74  9.30 57.80                                                             
C 14.76  6.97  9.13                                                             
C 14.76  6.97 21.30                                                             
C 14.76  6.97 33.47                                                             
C 14.76  6.97 45.63                                                             
C 14.76  6.97 57.80                                                             
C 18.79  4.65  9.13                                                             
C 18.79  4.65 21.30                                                             
C 18.79  4.65 33.47                                                             
C 18.79  4.65 45.63                                                             
C 18.79  4.65 57.80                                                             
C 22.81  2.32  9.13                                                             
C 22.81  2.32 21.30                                                             
C 22.81  2.32 33.47                                                             
C 22.81  2.32 45.63                                                             
C 22.81  2.32 57.80                                                             
C 26.84  0.00  9.13                                                             
C 26.84  0.00 21.30                                                             
C 26.84  0.00 33.47                                                             
C 26.84  0.00 45.63                                                             
C 26.84  0.00 57.80                                                             
C  6.71 16.27  9.13                                                             
C  6.71 16.27 21.30                                                             
C  6.71 16.27 33.47                                                             
C  6.71 16.27 45.63                                                             
C  6.71 16.27 57.80                                                             
C 10.74 13.95  9.13                                                             
C 10.74 13.95 21.30                                                             
C 10.74 13.95 33.47                                                             
C 10.74 13.95 45.63                                                             
C 10.74 13.95 57.80                                                             
C 14.76 11.62  9.13                                                             
C 14.76 11.62 21.30                                                             
C 14.76 11.62 33.47                                                             
C 14.76 11.62 45.63                                                             
C 14.76 11.62 57.80                                                             
C 18.79  9.30  9.13                                                             
C 18.79  9.30 21.30                                                             
C 18.79  9.30 33.47                                                             
C 18.79  9.30 45.63                                                             
C 18.79  9.30 57.80                                                             
C 22.81  6.97  9.13                                                             
C 22.81  6.97 21.30                                                             
C 22.81  6.97 33.47                                                             
C 22.81  6.97 45.63                                                             
C 22.81  6.97 57.80                                                             
C 26.84  4.65  9.13                                                             
C 26.84  4.65 21.30                                                             
C 26.84  4.65 33.47                                                             
C 26.84  4.65 45.63                                                             
C 26.84  4.65 57.80                                                             
C 30.86  2.32  9.13                                                             
C 30.86  2.32 21.30                                                             
C 30.86  2.32 33.47                                                             
C 30.86  2.32 45.63                                                             
C 30.86  2.32 57.80                                                             
C 14.76 16.27  9.13                                                             
C 14.76 16.27 21.30                                                             
C 14.76 16.27 33.47                                                             
C 14.76 16.27 45.63                                                             
C 14.76 16.27 57.80                                                             
C 18.79 13.95  9.13                                                             
C 18.79 13.95 21.30                                                             
C 18.79 13.95 33.47                                                             
C 18.79 13.95 45.63                                                             
C 18.79 13.95 57.80                                                             
C 22.81 11.62  9.13                                                             
C 22.81 11.62 21.30                                                             
C 22.81 11.62 33.47                                                             
C 22.81 11.62 45.63                                                             
C 22.81 11.62 57.80                                                             
C 26.84  9.30  9.13                                                             
C 26.84  9.30 21.30                                                             
C 26.84  9.30 33.47                                                             
C 26.84  9.30 45.63                                                             
C 26.84  9.30 57.80                                                             
C 30.86  6.97  9.13                                                             
C 30.86  6.97 21.30                                                             
C 30.86  6.97 33.47                                                             
C 30.86  6.97 45.63                                                             
C 30.86  6.97 57.80                                                             
C 22.81 16.27  9.13                                                             
C 22.81 16.27 21.30                                                             
C 22.81 16.27 33.47                                                             
C 22.81 16.27 45.63                                                             
C 22.81 16.27 57.80                                                             
C 26.84 13.95  9.13                                                             
C 26.84 13.95 21.30                                                             
C 26.84 13.95 33.47                                                             
C 26.84 13.95 45.63                                                             
C 26.84 13.95 57.80                                                             
C 30.86 11.62  9.13                                                             
C 30.86 11.62 21.30                                                             
C 30.86 11.62 33.47                                                             
C 30.86 11.62 45.63                                                             
C 30.86 11.62 57.80                                                             
C 30.86 16.27  9.13                                                             
C 30.86 16.27 21.30                                                             
C 30.86 16.27 33.47                                                             
C 30.86 16.27 45.63                                                             
C 30.86 16.27 57.80                                                             
%ENDBLOCK POSITIONS_ABS                                                         

--------------------------------------------------------------------------------
-------------------------------- END INPUT FILE --------------------------------
--------------------------------------------------------------------------------


 
<<<<<<<<<<<<<<<<<<<<<<<<<<<<<<<<< Full system >>>>>>>>>>>>>>>>>>>>>>>>>>>>>>>>>>
<<<<<<<<<<<<<<<<<<<<<<<<<<< PAW Dataset information >>>>>>>>>>>>>>>>>>>>>>>>>>>
File: ~/pp/paw/c_pbe_abinit.paw; rc = 1.25 bohr; shape type =  3; rshape = 1.25 bohr;
  Atomic number:  6;  ionic charge:  4.000000
    Partial Wave 1: l = 0
    Partial Wave 2: l = 0
    Partial Wave 3: l = 1
    Partial Wave 4: l = 1
  Core charge supplied for Nonlinear Core Corrections
<<<<<<<<<<<<<<<<<<<<<<<<<<<<<<<<<<<<<<< >>>>>>>>>>>>>>>>>>>>>>>>>>>>>>>>>>>>>>>

-------------------------- Atom counting information ---------------------------
Symbol    Natoms    Nngwfs    Nprojs
  C        640      2560      5120
.......   ......    ......    ......
Totals:    640      2560      5120
--------------------------------------------------------------------------------

=============================== PSINC grid sizes ===============================
                      Simulation cell:   63 x  35 x 120
                              FFT-box:   63 x  35 x 117
                                  PPD:    7 x   5 x   1
Grid space d1=  0.511269841270a0 (KE cutoff=  29.06054Eh = 790.77748eV)
Grid space d2=  0.531142857143a0 (KE cutoff=  26.92659Eh = 732.70972eV)
Grid space d3=  0.507083333333a0 (KE cutoff=  29.54237Eh = 803.88878eV)
================================================================================
  
WARNING in cell_grid_distribute:
Average of less than one 23-slab per node, so workload cannot be
equally balanced between nodes.

********************* Fourier parallelisation information **********************
       Coarse grid (whole simulation cell) dimensions:     63    35   120
          Real-space ('12') slabs/node (min max mean):      3     3     3
         Recip-space ('23') slabs/node (min max mean):      0     1     0
********************************************************************************

********************* Fourier parallelisation information **********************
       Double grid (whole simulation cell) dimensions:    126    70   240
          Real-space ('12') slabs/node (min max mean):      6     6     6
         Recip-space ('23') slabs/node (min max mean):      1     2     1
********************************************************************************

Atom SCF Calculation for C  : Z (AE atom) =   6 : Z (PS atom) =   4
Config String: 2s2 2p2
Orbitals (num,occ):  2     2.00 2.00
Orbitals   (num,l):  2        0    1
Real-space Grid (nr,dr,rmax): 1293    0.0069659443    9.0000000000
Spherical Bessel Basis (nsws,lmax,cutoff):   37    2  161.4736382572
Confining potential (l,width,scale):  0    3.0000000000  100.0000000000
Confining potential (l,width,scale):  1    3.0000000000  100.0000000000
  1         -5.4795203654   -1.3252209296    4.5135257941   -1.6370402169
  2         -5.4480859746   -1.4027979239    4.4305951748   -1.6109819005
  3         -5.4553164790   -1.4212834043    4.4102618304   -1.6059039466
  4         -5.4627841133   -1.4247091338    4.4065122085   -1.6052907585
  5         -5.4662306655   -1.4266814823    4.4043715292   -1.6049352647
  6         -5.4679520247   -1.4277352742    4.4032348712   -1.6047493439
  7         -5.4688359568   -1.4282868030    4.4026432892   -1.6046541449
  8         -5.4692951245   -1.4285734530    4.4023374832   -1.6046056242
  9         -5.4695349887   -1.4287220785    4.4021797781   -1.6045809101
 10         -5.4696606791   -1.4287991022    4.4020984905   -1.6045683155
 11         -5.4697266650   -1.4288390363    4.4020565747   -1.6045618912
 12         -5.4697613504   -1.4288597596    4.4020349416   -1.6045586107
 13         -5.4697795998   -1.4288705262    4.4020237638   -1.6045569335
 14         -5.4697892089   -1.4288761271    4.4020179806   -1.6045560749
 15         -5.4697942720   -1.4288790448    4.4020149844   -1.6045556348
 16         -5.4697969415   -1.4288805668    4.4020134298   -1.6045554088
 17         -5.4697983498   -1.4288813619    4.4020126220   -1.6045552927
 18         -5.4697990933   -1.4288817779    4.4020122017   -1.6045552329
 19         -5.4697994860   -1.4288819957    4.4020119826   -1.6045552021
 20         -5.4697996936   -1.4288821100    4.4020118683   -1.6045551862
 21         -5.4697998034   -1.4288821701    4.4020118085   -1.6045551780
 22         -5.4697998614   -1.4288822017    4.4020117772   -1.6045551737
Atom SCF converged after  22 iterations to a total energy of     -5.46979986

Determining parallel strategy ...
... using space-filling curve
... NGWF load balancing: max     64;  min     64;  average     64
... Projector load balancing: max    128;  min    128;  average    128
... done
Calculating Ewald energy ...
              Ewald: real-space energy =    9523.472672
        Ewald: reciprocal-space energy =       0.052232
         Ewald: (sum_charge)**2 Energy =   11469.549972
         Ewald: (sum_charge**2) Energy =     906.747541
                          Ewald Energy =   -2852.772608
Basis initialisation ...... NGWF spheres initialised
... Projector spheres initialised
... NGWF tight boxes initialised
... Projector tight boxes initialised
... Tight-boxes gathered
... NGWF basis size (local,global):     692756  27873568
... PAW projector initialisation
... done

============================= Charge Augmentation ==============================
                           Aug box size:   11 x  11 x  11
================================================================================

========================== Sparse matrix information ===========================
                        Overlap matrix filling:  44.38%
                        Density kernel filling: 100.00%
              NGWF-Proj overlap matrix filling:  13.12%
                    Aug Overlap matrix filling:  47.81%
                    Hamiltonian matrix filling:  47.81%
                  NGWF diagonal matrix filling:   0.16%
                             KS matrix filling: 100.00% 
                           KSKS matrix filling: 100.00% 
================================================================================

Sparse matrix initialisation ... done
NGWF initialisation ...... done
============ Calculation of NGWF S^-1 using Hotelling algorithm ================ 
         Iteration  |  Frobenius norm and Maximum abs value    (of I-S*S_n^-1)   
               1       0.49229344E+02     0.97813860E+00
               2       0.48118423E+02     0.95807537E+00
               3       0.46419136E+02     0.92235071E+00
               4       0.44166358E+02     0.86367753E+00
               5       0.41429911E+02     0.77628129E+00
               6       0.38179052E+02     0.69129723E+00
               7       0.34665744E+02     0.64083028E+00
               8       0.31288237E+02     0.59882507E+00
               9       0.27826090E+02     0.55695568E+00
              10       0.23568910E+02     0.49475834E+00
              11       0.17992607E+02     0.39414359E+00
              12       0.11304322E+02     0.25470678E+00
              13       0.50388845E+01     0.11218107E+00
              14       0.11939625E+01     0.24591804E-01
              15       0.80674227E-01     0.14431559E-02
              16       0.46955401E-03     0.64162199E-05
              17       0.23901240E-07     0.20045765E-09
              18       0.82884169E-13     0.37747583E-14
================================================================================
Calculating core density ...
================================= Core Density =================================
               Core den box size:   21 x  21 x  21
================================================================================
 ... done
Up spin density kernel initialisation ...... done

Writing density kernel to file "3.219844_GO_manual_4x64graphite.dkn" ... done

>>> Optimising kernel for current NGWFs:

--------------------------- Ensemble-DFT optimisation --------------------------
Running ScaLAPACK on   40 processor(s).

--------------------------------------------------------------------------------
  Iter                              Commutator    Free_energy(A=E-TS)     DeltaA
#    0                          0.000045521909   -3651.91232746089963  -3.65E+03

Step                       =       0.381966011250
Energy                     =   -3651.912290076659
Entropy (-TS)              =      -0.000037384624
Free energy (A=E-TS)       =   -3651.912327460900
Est. 0K Energy 0.5*(E+A)   =   -3651.912308768779
Residual Non-orthogonality =       0.000000000000
Residual N_electrons       =       0.000000000383

Spin          Integrated_Ne            Fermi_level     Delta_Fermi_level
   1      2559.999999998358         0.233406810324              2.33E-01

                           Spin 1          
     Orb      H-eigenvalues     Occupancies
       1 |    -0.4916763093    1.0000000000 | 
                          ------
    1276 |     0.2002888896    0.9999712778 | 
    1277 |     0.2009009386    0.9999651542 | 
    1278 |     0.2009055588    0.9999651033 | 
    1279 |     0.2013458440    0.9999598983 | 
    1280 |     0.2019509215    0.9999514557 | 
                 - Gap at zero temperature -
    1281 |     0.2672923931    0.0000225394 | 
    1282 |     0.2672979993    0.0000224996 | 
    1283 |     0.2674114187    0.0000217080 | 
    1284 |     0.2675218565    0.0000209641 | 
    1285 |     0.2675274456    0.0000209271 | 
                          ------
    2560 |     1.0677888574    0.0000000000 | 

                       |  Abs_value |  Threshold | Converged
     Delta_Free_energy |   3.65E+03 |   1.00E-06 |        No
     Delta_Energy      |   3.65E+03 |   1.00E-04 |        No
     Delta_Entropy     |   3.74E-05 |   1.00E-04 |       Yes
     Commutator        |   4.55E-05 |   1.00E-05 |        No
     Delta_Fermi_level |   2.33E-01 |   1.00E-03 |        No

  Line search of the free energy minimum:
  Step_type        Step             Free_energy   Predicted_free_energy
.   Initial    0.000000    -3651.91232746089963
.    Trial1    0.381966    -3651.91441967300989
.    Trial2    0.618034    -3651.91415954031118
. Quadratic    0.448245    -3651.91446577560191    -3651.91446643865083

--------------------------------------------------------------------------------
  Iter                              Commutator    Free_energy(A=E-TS)     DeltaA
#    1                          0.000021734102   -3651.91446577560191  -2.14E-03

Step                       =       0.448244980718
Energy                     =   -3651.914429352901
Entropy (-TS)              =      -0.000036422869
Free energy (A=E-TS)       =   -3651.914465775602
Est. 0K Energy 0.5*(E+A)   =   -3651.914447564252
Residual Non-orthogonality =       0.000000000000
Residual N_electrons       =       0.000000000168

Spin          Integrated_Ne            Fermi_level     Delta_Fermi_level
   1      2559.999999999288         0.235617616583              2.21E-03

                           Spin 1          
     Orb      H-eigenvalues     Occupancies
       1 |    -0.4902418735    1.0000000000 | 
                          ------
    1276 |     0.2024845249    0.9999714151 | 
    1277 |     0.2029693646    0.9999666861 | 
    1278 |     0.2029775554    0.9999665998 | 
    1279 |     0.2035622498    0.9999598274 | 
    1280 |     0.2040440357    0.9999532266 | 
                 - Gap at zero temperature -
    1281 |     0.2695714195    0.0000220591 | 
    1282 |     0.2695896226    0.0000219327 | 
    1283 |     0.2697226425    0.0000210305 | 
    1284 |     0.2698318507    0.0000203176 | 
    1285 |     0.2698738039    0.0000200503 | 
                          ------
    2560 |     1.0716194834    0.0000000000 | 

                       |  Abs_value |  Threshold | Converged
     Delta_Free_energy |   2.14E-03 |   1.00E-06 |        No
     Delta_Energy      |   2.14E-03 |   1.00E-04 |        No
     Delta_Entropy     |   9.62E-07 |   1.00E-04 |       Yes
     Commutator        |   2.17E-05 |   1.00E-05 |        No
     Delta_Fermi_level |   2.21E-03 |   1.00E-03 |        No

  Line search of the free energy minimum:
  Step_type        Step             Free_energy   Predicted_free_energy
.   Initial    0.000000    -3651.91446577560191
.    Trial1    0.448245    -3651.91477973781593
.    Trial2    0.658997    -3651.91430658399304
. Quadratic    0.302476    -3651.91487533056898    -3651.91487471285518

--------------------------------------------------------------------------------
  Iter                              Commutator    Free_energy(A=E-TS)     DeltaA
#    2                          0.000014537010   -3651.91487533056898  -4.10E-04

Step                       =       0.302475500081
Energy                     =   -3651.914839383281
Entropy (-TS)              =      -0.000035947141
Free energy (A=E-TS)       =   -3651.914875330569
Est. 0K Energy 0.5*(E+A)   =   -3651.914857356925
Residual Non-orthogonality =       0.000000000000
Residual N_electrons       =      -0.000000000147

Spin          Integrated_Ne            Fermi_level     Delta_Fermi_level
   1      2560.000000000623         0.236392102518              7.74E-04

                           Spin 1          
     Orb      H-eigenvalues     Occupancies
       1 |    -0.4897236027    1.0000000000 | 
                          ------
    1276 |     0.2031988971    0.9999719526 | 
    1277 |     0.2037139713    0.9999669989 | 
    1278 |     0.2037233688    0.9999669009 | 
    1279 |     0.2042708313    0.9999606547 | 
    1280 |     0.2047838582    0.9999537357 | 
                 - Gap at zero temperature -
    1281 |     0.2703945463    0.0000217229 | 
    1282 |     0.2704138836    0.0000215906 | 
    1283 |     0.2705451276    0.0000207141 | 
    1284 |     0.2706635682    0.0000199538 | 
    1285 |     0.2707080563    0.0000196754 | 
                          ------
    2560 |     1.0730219394    0.0000000000 | 

                       |  Abs_value |  Threshold | Converged
     Delta_Free_energy |   4.10E-04 |   1.00E-06 |        No
     Delta_Energy      |   4.10E-04 |   1.00E-04 |        No
     Delta_Entropy     |   4.76E-07 |   1.00E-04 |       Yes
     Commutator        |   1.45E-05 |   1.00E-05 |        No
     Delta_Fermi_level |   7.74E-04 |   1.00E-03 |       Yes

  Line search of the free energy minimum:
  Step_type        Step             Free_energy   Predicted_free_energy
.   Initial    0.000000    -3651.91487533056898
.    Trial1    0.302476    -3651.91504015055989
.    Trial2    0.568906    -3651.91484918741298
. Quadratic    0.274092    -3651.91504196632059    -3651.91504193712444

--------------------------------------------------------------------------------
  Iter                              Commutator    Free_energy(A=E-TS)     DeltaA
#    3                          0.000010162791   -3651.91504196632059  -1.67E-04

Step                       =       0.274092372977
Energy                     =   -3651.915006304494
Entropy (-TS)              =      -0.000035661972
Free energy (A=E-TS)       =   -3651.915041966321
Est. 0K Energy 0.5*(E+A)   =   -3651.915024135407
Residual Non-orthogonality =       0.000000000000
Residual N_electrons       =       0.000000000145

Spin          Integrated_Ne            Fermi_level     Delta_Fermi_level
   1      2559.999999999389         0.236884378198              4.92E-04

                           Spin 1          
     Orb      H-eigenvalues     Occupancies
       1 |    -0.4893914754    1.0000000000 | 
                          ------
    1276 |     0.2036624763    0.9999722056 | 
    1277 |     0.2041817835    0.9999672529 | 
    1278 |     0.2041914812    0.9999671525 | 
    1279 |     0.2047332163    0.9999610243 | 
    1280 |     0.2052507423    0.9999541052 | 
                 - Gap at zero temperature -
    1281 |     0.2709134950    0.0000215407 | 
    1282 |     0.2709330788    0.0000214079 | 
    1283 |     0.2710648091    0.0000205357 | 
    1284 |     0.2711825793    0.0000197860 | 
    1285 |     0.2712271470    0.0000195095 | 
                          ------
    2560 |     1.0739175811    0.0000000000 | 

                       |  Abs_value |  Threshold | Converged
     Delta_Free_energy |   1.67E-04 |   1.00E-06 |        No
     Delta_Energy      |   1.67E-04 |   1.00E-04 |        No
     Delta_Entropy     |   2.85E-07 |   1.00E-04 |       Yes
     Commutator        |   1.02E-05 |   1.00E-05 |        No
     Delta_Fermi_level |   4.92E-04 |   1.00E-03 |       Yes

  Line search of the free energy minimum:
  Step_type        Step             Free_energy   Predicted_free_energy
.   Initial    0.000000    -3651.91504196632059
.    Trial1    0.274092    -3651.91512205566096
.    Trial2    0.551364    -3651.91504781853610
. Quadratic    0.280908    -3651.91512210081373    -3651.91512210283554

--------------------------------------------------------------------------------
  Iter                              Commutator    Free_energy(A=E-TS)     DeltaA
#    4                          0.000007432321   -3651.91512210081373  -8.01E-05

Step                       =       0.280907964192
Energy                     =   -3651.915086646057
[...]
 C   160 -- C   385       -0.10      5.37000
 C   159 -- C   384       -0.10      5.37000
 C   158 -- C   383       -0.10      5.37000
 C   157 -- C   382       -0.10      5.37000
 C   156 -- C   381       -0.10      5.37000
 C   155 -- C   355       -0.10      5.37000
 C   154 -- C   354       -0.10      5.37000
 C   153 -- C   353       -0.10      5.37000
 C   152 -- C   352       -0.10      5.37000
 C   151 -- C   351       -0.10      5.37000
 C   140 -- C   335       -0.10      5.37000
 C   139 -- C   334       -0.10      5.37000
 C   138 -- C   333       -0.10      5.37000
 C   137 -- C   332       -0.10      5.37000
 C   136 -- C   331       -0.10      5.37000
 C   115 -- C   325       -0.10      5.37000
 C   114 -- C   324       -0.10      5.37000
 C   113 -- C   323       -0.10      5.37000
 C   112 -- C   322       -0.10      5.37000
 C   111 -- C   321       -0.10      5.37000
 C   219 -- C   569       -0.10      5.37202
 C   218 -- C   568       -0.10      5.37202
 C   217 -- C   567       -0.10      5.37202
 C   216 -- C   566       -0.10      5.37202
 C   250 -- C   540       -0.10      5.37202
 C   249 -- C   539       -0.10      5.37202
 C   248 -- C   538       -0.10      5.37202
 C   247 -- C   537       -0.10      5.37202
 C   246 -- C   536       -0.10      5.37202
 C   220 -- C   570       -0.10      5.37202
 C   285 -- C   580       -0.10      5.37202
 C   284 -- C   579       -0.10      5.37202
 C   283 -- C   578       -0.10      5.37202
 C   282 -- C   577       -0.10      5.37202
 C   281 -- C   576       -0.10      5.37202
 C   260 -- C   605       -0.10      5.37202
 C   259 -- C   604       -0.10      5.37202
 C   258 -- C   603       -0.10      5.37202
 C   257 -- C   602       -0.10      5.37202
 C   256 -- C   601       -0.10      5.37202
 C   220 -- C   515       -0.10      5.37202
 C   219 -- C   514       -0.10      5.37202
 C   218 -- C   513       -0.10      5.37202
 C   217 -- C   512       -0.10      5.37202
 C   216 -- C   511       -0.10      5.37202
 C   195 -- C   540       -0.10      5.37202
 C   195 -- C   500       -0.10      5.37202
 C   194 -- C   539       -0.10      5.37202
 C   194 -- C   499       -0.10      5.37202
 C   193 -- C   538       -0.10      5.37202
 C   193 -- C   498       -0.10      5.37202
 C   192 -- C   537       -0.10      5.37202
 C   192 -- C   497       -0.10      5.37202
 C   191 -- C   536       -0.10      5.37202
 C   191 -- C   496       -0.10      5.37202
 C   180 -- C   515       -0.10      5.37202
 C   179 -- C   514       -0.10      5.37202
 C   178 -- C   513       -0.10      5.37202
 C   177 -- C   512       -0.10      5.37202
 C   176 -- C   511       -0.10      5.37202
 C    11 -- C   331       -0.10      5.37202
 C   205 -- C   550       -0.10      5.37202
 C   204 -- C   549       -0.10      5.37202
 C   203 -- C   548       -0.10      5.37202
 C   202 -- C   547       -0.10      5.37202
 C   201 -- C   546       -0.10      5.37202
 C    95 -- C   425       -0.10      5.37202
 C    95 -- C   365       -0.10      5.37202
 C    94 -- C   424       -0.10      5.37202
 C    94 -- C   364       -0.10      5.37202
 C    93 -- C   423       -0.10      5.37202
 C    93 -- C   363       -0.10      5.37202
 C    92 -- C   422       -0.10      5.37202
 C    92 -- C   362       -0.10      5.37202
 C    91 -- C   421       -0.10      5.37202
 C    91 -- C   361       -0.10      5.37202
 C    40 -- C   365       -0.10      5.37202
 C    39 -- C   364       -0.10      5.37202
 C    38 -- C   363       -0.10      5.37202
 C    37 -- C   362       -0.10      5.37202
 C    36 -- C   361       -0.10      5.37202
 C    15 -- C   335       -0.10      5.37202
 C    65 -- C   395       -0.10      5.37202
 C    65 -- C   345       -0.10      5.37202
 C    64 -- C   394       -0.10      5.37202
 C    64 -- C   344       -0.10      5.37202
 C    63 -- C   393       -0.10      5.37202
 C    30 -- C   355       -0.10      5.37202
 C    63 -- C   343       -0.10      5.37202
 C    62 -- C   392       -0.10      5.37202
 C    30 -- C   325       -0.10      5.37202
 C    14 -- C   334       -0.10      5.37202
 C    62 -- C   342       -0.10      5.37202
 C    61 -- C   391       -0.10      5.37202
 C    29 -- C   354       -0.10      5.37202
 C    61 -- C   341       -0.10      5.37202
 C    29 -- C   324       -0.10      5.37202
 C   260 -- C   550       -0.10      5.37202
 C   259 -- C   549       -0.10      5.37202
 C    28 -- C   353       -0.10      5.37202
 C   258 -- C   548       -0.10      5.37202
 C   257 -- C   547       -0.10      5.37202
 C   256 -- C   546       -0.10      5.37202
 C    28 -- C   323       -0.10      5.37202
 C    27 -- C   352       -0.10      5.37202
 C    13 -- C   333       -0.10      5.37202
 C    27 -- C   322       -0.10      5.37202
 C   120 -- C   395       -0.10      5.37202
 C    26 -- C   351       -0.10      5.37202
 C   119 -- C   394       -0.10      5.37202
 C   118 -- C   393       -0.10      5.37202
 C    55 -- C   335       -0.10      5.37202
 C   117 -- C   392       -0.10      5.37202
 C    26 -- C   321       -0.10      5.37202
 C   116 -- C   391       -0.10      5.37202
 C    54 -- C   334       -0.10      5.37202
 C    12 -- C   332       -0.10      5.37202
 C    53 -- C   333       -0.10      5.37202
 C   230 -- C   580       -0.10      5.37202
 C   230 -- C   525       -0.10      5.37202
 C   229 -- C   579       -0.10      5.37202
 C   229 -- C   524       -0.10      5.37202
 C   228 -- C   578       -0.10      5.37202
 C    52 -- C   332       -0.10      5.37202
 C   228 -- C   523       -0.10      5.37202
 C   227 -- C   577       -0.10      5.37202
 C   227 -- C   522       -0.10      5.37202
 C   226 -- C   576       -0.10      5.37202
 C   226 -- C   521       -0.10      5.37202
 C    51 -- C   331       -0.10      5.37202
 C    23 -- C   478       -0.10      5.37202
 C    49 -- C   469       -0.10      5.37202
 C    48 -- C   468       -0.10      5.37202
 C    47 -- C   467       -0.10      5.37202
 C    22 -- C   477       -0.10      5.37202
 C    46 -- C   466       -0.10      5.37202
 C    21 -- C   476       -0.10      5.37202
 C    85 -- C   355       -0.10      5.37202
 C    84 -- C   354       -0.10      5.37202
 C    83 -- C   353       -0.10      5.37202
 C    82 -- C   352       -0.10      5.37202
 C    81 -- C   351       -0.10      5.37202
 C    55 -- C   385       -0.10      5.37202
 C    54 -- C   384       -0.10      5.37202
 C    25 -- C   480       -0.10      5.37202
 C    53 -- C   383       -0.10      5.37202
 C    52 -- C   382       -0.10      5.37202
 C    51 -- C   381       -0.10      5.37202
 C    24 -- C   479       -0.10      5.37202
 C    50 -- C   470       -0.10      5.37202
 C    24 -- C   449       -0.10      5.37202
 C     6 -- C   416       -0.10      5.37202
 C    23 -- C   448       -0.10      5.37202
 C    22 -- C   447       -0.10      5.37202
 C    10 -- C   470       -0.10      5.37202
 C     5 -- C   450       -0.10      5.37202
 C    21 -- C   446       -0.10      5.37202
 C    10 -- C   420       -0.10      5.37202
 C     9 -- C   469       -0.10      5.37202
 C     9 -- C   419       -0.10      5.37202
 C     8 -- C   468       -0.10      5.37202
 C     4 -- C   449       -0.10      5.37202
 C   150 -- C   440       -0.10      5.37202
 C   149 -- C   439       -0.10      5.37202
 C   148 -- C   438       -0.10      5.37202
 C   147 -- C   437       -0.10      5.37202
 C     8 -- C   418       -0.10      5.37202
 C   146 -- C   436       -0.10      5.37202
 C     2 -- C   447       -0.10      5.37202
 C   135 -- C   460       -0.10      5.37202
 C     7 -- C   467       -0.10      5.37202
 C   134 -- C   459       -0.10      5.37202
 C   133 -- C   458       -0.10      5.37202
 C   132 -- C   457       -0.10      5.37202
 C   131 -- C   456       -0.10      5.37202
 C     7 -- C   417       -0.10      5.37202
 C     1 -- C   446       -0.10      5.37202
 C     6 -- C   466       -0.10      5.37202
 C    25 -- C   450       -0.10      5.37202
 C     3 -- C   448       -0.10      5.37202
 C   106 -- C   436       -0.10      5.37202
 C   106 -- C   376       -0.10      5.37202
 C    80 -- C   410       -0.10      5.37202
 C    79 -- C   409       -0.10      5.37202
 C    78 -- C   408       -0.10      5.37202
 C    77 -- C   407       -0.10      5.37202
 C    76 -- C   406       -0.10      5.37202
 C   135 -- C   410       -0.10      5.37202
 C   134 -- C   409       -0.10      5.37202
 C   133 -- C   408       -0.10      5.37202
 C   132 -- C   407       -0.10      5.37202
 C   131 -- C   406       -0.10      5.37202
 C   110 -- C   440       -0.10      5.37202
 C   110 -- C   380       -0.10      5.37202
 C   109 -- C   439       -0.10      5.37202
 C   109 -- C   379       -0.10      5.37202
 C   108 -- C   438       -0.10      5.37202
 C   108 -- C   378       -0.10      5.37202
 C   107 -- C   437       -0.10      5.37202
 C   107 -- C   377       -0.10      5.37202
 C   215 -- C   635       -0.10      5.38000
 C   214 -- C   634       -0.10      5.38000
 C   213 -- C   633       -0.10      5.38000
 C   212 -- C   632       -0.10      5.38000
 C   211 -- C   631       -0.10      5.38000
 C   190 -- C   620       -0.10      5.38000
 C   189 -- C   619       -0.10      5.38000
 C   188 -- C   618       -0.10      5.38000
 C   187 -- C   617       -0.10      5.38000
 C   186 -- C   616       -0.10      5.38000
 C   175 -- C   595       -0.10      5.38000
 C   174 -- C   594       -0.10      5.38000
 C   173 -- C   593       -0.10      5.38000
 C   172 -- C   592       -0.10      5.38000
 C   171 -- C   591       -0.10      5.38000
 C   245 -- C   640       -0.10      5.38000
 C   244 -- C   639       -0.10      5.38000
 C   243 -- C   638       -0.10      5.38000
 C   242 -- C   637       -0.10      5.38000
 C   241 -- C   636       -0.10      5.38000
==================================================


=================== Orbital energy and occupancy information ===================

      Total number of orbitals:    2560
        Occupancy sum (kernel):    1280.000000001
   Occupancy sum (eigenvalues):    1280.000000001
                 HOMO-LUMO gap:       0.000018407 Eh
                 Mid-gap level:       0.308822077 Eh

                        Orbital | Energy (Eh) | Occupancy
                            1    -0.449591456   1.0000000
                        .......   ...........   .........
                         1272     0.240978556   0.9999875
                         1273     0.241389062   0.9999858
                         1274     0.241449240   0.9999855
                         1275     0.245341262   0.9999506
                         1276     0.245342802   0.9999506
                         1277     0.245785270   0.9999432
                         1278     0.245786705   0.9999431
                         1279     0.245981394   0.9999395
                         1280     0.246408197   0.9999308
                         1281     0.308812873   0.0000399
                        ....... -- gap at 0K -- .........
                         1282     0.308831280   0.0000396
                         1283     0.309067590   0.0000368
                         1284     0.309085712   0.0000366
                         1285     0.309830965   0.0000290
                         1286     0.309835017   0.0000290
                         1287     0.310103042   0.0000266
                         1288     0.310107058   0.0000266
                         1289     0.310528030   0.0000233
                         1290     0.310806593   0.0000213
                         1291     0.310969476   0.0000201
                        .......   ...........   .........
                         2560     1.169309137   0.0000000

================================================================================

===================== Writing canonical molecular orbitals =====================
| Orbital  Energy (eV)  Norm     |
| HOMO      8.40322587  1.000000 | Writing "3.219844_GO_manual_4x64graphite_HOMO.cube" ... done
Writing "3.219844_GO_manual_4x64graphite_HOMO.dx" ... done
| LUMO      8.40372674  1.000000 | Writing "3.219844_GO_manual_4x64graphite_LUMO.cube" ... done
Writing "3.219844_GO_manual_4x64graphite_LUMO.dx" ... done
================================================================================
 
===================== Density of States (DOS) calculation ======================
Writing "3.219844_GO_manual_4x64graphite_DOS.txt" ...  done
================================================================================
 
Writing bands to file "3.219844_GO_manual_4x64graphite.val_bands" ... done
 
================ Projected Density of States (pDOS) calculation ================
 
Constructing AM resolved functions  ...... done
Writing NGWF plot files in formats: CUBE DX ...  done
 
Performing overlap integrals ...  done
 
Computing pDOS weights ...  done
 
All bands spilling parameter =   3.95 %
Occupancy-weighted spilling parameter =   0.84 %
 
 => Outputting data for OptaDOS <=
 
Writing pDOS weights to file "3.219844_GO_manual_4x64graphite.val_pdos_bin" ... done
 
Writing band gradients to file "3.219844_GO_manual_4x64graphite.val_dome_bin" ... done
 
Writing Castep output cell file to "3.219844_GO_manual_4x64graphite-out.cell" ... done
 
 => Computing Gaussian smeared pDOS <= 
Writing "3.219844_GO_manual_4x64graphite_PDOS.txt" ...  done
 
 => Computing Occupancy-weighted Gaussian smeared pDOS <= 
Writing "3.219844_GO_manual_4x64graphite_occ_PDOS.txt" ...  done
  => Band centres: 
 S band centre of group 1:  -15.552948 eV
 P band centre of group 1:   -8.446910 eV
  Band centres done. <=
  => Integrated number of electrons in each AM band: 
 S num electrons of group 1:  575.821754
 P num electrons of group 1: 1962.770592
  Integrated number of electrons done. <=
================================================================================

------------------------------ TIMING INFORMATION ------------------------------
AVERAGE TIME:    4428.562s on     40 node(s)                                    
TOTAL TIME:      4428.565s on     40 node(s)                                    
================= AVERAGE TIMINGS FROM ALL NODES (CUMULATIVE) ==================
|| TAG                                    #calls    cpu time   %total  Gflops ||
|| work_imbalance                       :     1        0.00s   0.000%  ------ ||
|| paw_tcore_hartree_on_grid            :     1        0.01s   0.000%  ------ ||
|| paw_tcore_density                    :     1        0.01s   0.000%  ------ ||
|| paw_sphere_density_on_grid           :     1        0.01s   0.000%  ------ ||
|| sparse_set_to_garbage                :   183        0.03s   0.001%  ------ ||
|| paw_dij_hartree                      :   385        0.05s   0.001%  ------ ||
|| pseudo_make_structure_factor         :     1        0.05s   0.001%  ------ ||
|| basis_extract_function_from_box      :  2048        0.09s   0.002%  ------ ||
|| paw_species_calc_proj_prec_mat       :     1        0.12s   0.003%  ------ ||
|| paw_dataset_init                     :     1        0.15s   0.003%  ------ ||
|| density_init_guess_real              :     1        0.18s   0.004%  ------ ||
|| ngwfs_initialise_from_radial         :     2        0.67s   0.015%  ------ ||
|| sparse_init                          :     1        0.96s   0.022%  ------ ||
|| restart_kernel_write                 :    17        0.96s   0.022%  ------ ||
|| dense_normal_eigensolve              :     1        1.11s   0.025%  ------ ||
|| hartree_on_grid                      :   289        1.16s   0.026%  ------ ||
|| ewald_calculate_energy               :     1        2.30s   0.052%  ------ ||
|| projectors_init_fftbox_recip         :   161        3.12s   0.070%  ------ ||
|| fourier_apply_box_pair               :  3040        5.05s   0.114% 557.913 ||
|| basis_copy_function_to_box           : 27392        5.73s   0.129%  ------ ||
|| augmentation_screen_dij              :   296        6.27s   0.142%  ------ ||
|| sw_init                              :     1        6.73s   0.152%  ------ ||
|| sparse_embed_hotelling_invert_embed  :    31        9.66s   0.218%  ------ ||
|| ngwf_gradient_coeffs                 :    16       12.68s   0.286%  ------ ||
|| fourier_apply_cell_backward          :  8930       15.19s   0.343%  66.082 ||
|| fourier_apply_cell_forward           :  8353       16.92s   0.382%  55.478 ||
|| cell_grid_extract_box_real           : 11596       18.32s   0.414%  ------ ||
|| sparse_trace                         :  3492       20.20s   0.456%  ------ ||
|| paw_dij_xc                           :   385       25.64s   0.579%  ------ ||
|| cell_grid_deposit_box_real           : 37168       27.37s   0.618%  ------ ||
|| aug_nonlocal_mat                     :   369       39.05s   0.882%  ------ ||
|| augmentation_density_on_grid         :   289       53.64s   1.211%  ------ ||
|| eigenstates_pdos                     :     1       57.16s   1.291%  ------ ||
|| density_fftbox_deposit_to_cell       : 18496       58.17s   1.314%  ------ ||
|| eigenstates_calculate                :     1       61.78s   1.395%  ------ ||
|| function_ops_brappd_ketppd           :    64       66.40s   1.499%  ------ ||
|| hamiltonian_energy_components        :     4       67.10s   1.515%  ------ ||
|| nlxc_vdw_energy                      :   576       67.78s   1.531%  ------ ||
|| projectors_func_ovlp_box             :    32       78.39s   1.770%  ------ ||
|| xc_energy_potential                  :   288       79.06s   1.785%  ------ ||
|| properties_calculate                 :     1      107.71s   2.432%  ------ ||
|| integrals_kinetic                    :    31      117.67s   2.657%  ------ ||
|| dense_eigensolve                     :   253      132.72s   2.997%  ------ ||
|| potential_apply_to_ngwf_batch        :   364      144.04s   3.253%  ------ ||
|| restart_ngwfs_tightbox_output        :    15      146.92s   3.318%  ------ ||
|| sparse_product                       :  3511      153.71s   3.471%  ------ ||
|| basis_dot_function_with_box          : 9.120M     244.53s   5.522%  ------ ||
|| fourier_apply_box                    : 86192      268.62s   6.066% 976.487 ||
|| edft_diag_ngwf_ham                   :   252      287.96s   6.502%  ------ ||
|| projectors_gradient_batch            :    64      296.11s   6.686%  ------ ||
|| integrals_locpot_mat_els_batch       :   364      347.49s   7.847%  ------ ||
|| density_fftbox_interpolate_multiply  : 18496      356.44s   8.049%  ------ ||
|| projectors_grad_precond_batch        :    64      443.34s  10.011%  ------ ||
|| density_batch_interp_deposit         :  1156      460.17s  10.391%  ------ ||
|| integrals_locpot_dbl_grid            :    91      493.48s  11.143%  ------ ||
|| edft_apply_smearing_operator         :   252      559.30s  12.629%  ------ ||
|| basis_add_function_to_box            : 25.66M     663.73s  14.987%  ------ ||
|| ngwf_gradient_build_batch            :    64      788.53s  17.806%  ------ ||
|| density_batch_row_sums               :  1156      994.33s  22.453%  ------ ||
|| ngwf_gradient_batch                  :    64     1053.33s  23.785%  ------ ||
|| ngwf_gradient_lnv                    :    16     1090.07s  24.615%  ------ ||
|| density_on_dbl_grid                  :   289     1468.09s  33.150%  ------ ||
|| hamiltonian_lhxc_calculate           :   283     1572.58s  35.510%  ------ ||
|| edft_calculate                       :    16     2601.73s  58.749%  ------ ||
|| ngwf_cg_optimise                     :     1     4295.32s  96.991%  ------ ||
|| total_time                           :     1     4428.56s 100.000%  ------ ||
================================================================================
Overhead of generating timer report: 
- 0 ms averaging over threads,
- 6 ms ensuring consistency across MPI ranks,
- 0 ms printing in order.

Job completed: 24-02-2020 22:22 (-0000)

