 +---------------------------------------------------------------+
 |                                                               |
 |        ####### #     # ####### ####### ####### ######         |
 |        #     # ##    # #          #    #       #     #        |
 |        #     # # #   # #          #    #       #     #        |
 |        #     # #  #  # #####      #    #####   ######         |
 |        #     # #   # # #          #    #       #              |
 |        #     # #    ## #          #    #       #              |
 |        ####### #     # #######    #    ####### #              |
 |                                                               |
 |        Linear-Scaling Ab Initio Total Energy Program          |
 |                                                               |
 |          Release for academic collaborators of ODG            |
 |                                             Version 5.3.2.12  |
 |                                                               |
 +---------------------------------------------------------------+
 |                                                               |
 |  Authors:                                                     |
 |  Jacek Dziedzic, Peter D. Haynes, Nicholas D. M. Hine,        |
 |  Arash. A. Mostofi, Mike C. Payne and Chris-Kriton Skylaris   |
 |                                                               |
 |  Contributors:                                                |
 |  J. Aarons, L. Andrinopoulos, P. W. Avraam, R. A. Bell,       |
 |  A. Bhandari, G. A. Bramley, R. J. Charlton, S. J. Clark,     |
 |  R. J. Clements, G. C. Constantinescu, F. Corsetti,           |
 |  N. Corsini, O. Dieguez, S. M. M. Dubois, K. K. B. Duff,      |
 |  J. M. Escartin, A. Greco, H. Helal, Q. O. Hill, L. P. Lee,   |
 |  J.-H. Li, E. B. Linscott, G. Moynihan, D. D. O`Regan,        |
 |  O. K. Okan, M. J. S. Phipps, C. J. Pickard,                  |
 |  J. C. A. Prentice, M. I. J. Probert, L. E. Ratcliff,         |
 |  M. Robinson, A. Ruiz Serrano, J. S. Spencer, E. W. Tait,     |
 |  G. Teobaldi, D. Turban, V. Vitale, K. A. Wilkinson,          |
 |  C. Weber, J. C. Womack, N. Yeung and T. J. Zuehlsdorff       |
 |                                                               |
 |                                   Copyright (c) 2004-2020     |
 |                                                               |
 |  Please cite:                                                 |
 |  "Introducing ONETEP: Linear-scaling density functional       |
 |   simulations on parallel computers".                         |
 |   C.-K. Skylaris, P. D. Haynes, A. A. Mostofi, M. C. Payne.   |
 |   J. Chem. Phys. 122 084119 (2005).                           |
 |                                                               |
 |          in all publications arising from your use of ONETEP. |
 |                                                               |
 +---------------------------------------------------------------+
 |                                                               |
 |   ONETEP is based on developments described in the following  |
 |   publications:                                               |
 |                                                               |
 |  "Nonorthogonal generalized Wannier function pseudopotential  |
 |   plane-wave method".                                         |
 |   C.-K. Skylaris, A. A. Mostofi, P. D. Haynes, O. Dieguez,    |
 |   M. C. Payne.                                                |
 |   Phys. Rev. B 66 035119 (2002).                              |
 |                                                               |
 |  "Preconditioned iterative minimization for linear-scaling    |
 |   electronic structure calculations".                         |
 |   A. A. Mostofi, P. D. Haynes, C.-K. Skylaris, M. C. Payne.   |
 |   J. Chem. Phys. 119(17), pp.8842-8848 (2003).                |
 |                                                               |
 |  "Total-energy calculations on a real space grid with         |
 |   localized functions and a plane-wave basis".                |
 |   A. A. Mostofi, C.-K. Skylaris, P. D. Haynes, M. C. Payne.   |
 |   Comput. Phys. Commun. 147, pp.788-802 (2002).               |
 |                                                               |
 |  "Accurate kinetic energy evaluation in electronic structure  |
 |   calculations with localized functions on real space grids"  |
 |   C.-K. Skylaris, A. A. Mostofi, P. D. Haynes, C. J. Pickard, |
 |   M. C. Payne.                                                |
 |   Comput. Phys. Commun. 140, pp.315-322 (2001).               |
 |                                                               |
 |  "Accurate ionic forces and geometry optimization in linear-  |
 |   scaling density-functional theory with local orbitals"      |
 |   N. D. M. Hine, M. Robinson, P. D. Haynes, C.-K. Skylaris,   |
 |   M. C. Payne, and A. A. Mostofi.                             |
 |   Phys. Rev. B 83 195102 (2011).                              |
 |                                                               |
 +---------------------------------------------------------------+

Job started: 24-02-2020 22:07 (-0000)
 
Reading parameters from file "3.3003376_GO_manual_4x64graphite.dat" ...

WARNING: "cutoff_energy" not specified, but "psinc_spacing" specified.
         Using the latter to set the KE cutoff energy to  732.32021eV,
         thus *overriding* the default.

... done

If your calculation crashes here, before "Checking processes and threads..."
is displayed, then your stack size is insufficient.
If so, use "ulimit -s unlimited" at runtime.
You can disable this check with "check_stack_size F".

Checking processes and threads...
   Determining the default number of threads...
      No default threads set at compilation time: defaulting to 1.
      OpenMP library call suggests 4 threads.
      Hybrid MPI-OpenMP compilation detected.
      Number of MPI processes > 1.
      OMP_NUM_THREADS environment variable present and
      its value matches the one obtained from the OpenMP library call.
      Using this value as default.
      Default threads: 4
      Default applies to threads_max and threads_num_fftboxes.
      Settings in the input file override this default.
   ... done

   Running with 40 MPI processes.
   There are 10 MPI processes running on the same node as the root process.
   Each MPI process is using: 
               1 threads for simulation cell FFTs.
               1 threads for parallel FFT box operations.
               4 threads for loops over batched FFT box operations.
               4 threads in other parallel regions.
... done

Basic input checks...
Resetting ngwf_cg_rotate to TRUE for EDFT calculations
... done

Reading geometry and species blocks from file "3.3003376_GO_manual_4x64graphite.dat" ...
    
  PSINC grid spacing along a1 set to   0.511215680000a0 from input file.
  PSINC grid spacing along a2 set to   0.531284090000a0 from input file.
  PSINC grid spacing along a3 set to   0.507052600000a0 from input file.
  Number of PPD points along a3 set to 1.  This is 
  the default value, it may have been provided also in the input file.
... done
 Writing xyz coordinates to file "3.3003376_GO_manual_4x64graphite.xyz" ... done


--------------------------------------------------------------------------------
---------------------------------- INPUT FILE ----------------------------------
--------------------------------------------------------------------------------

task : singlepoint                                                              
do_properties : true                                                            
dx_format T                                                                     
edft T                                                                          
output_detail VERBOSE                                                           
write_xyz T                                                                     
xc_functional OPTPBE                                                            
PSINC_SPACING 0.51121568 0.53128409 0.50705260                                  
paw T                                                                           
pdos_max_l = 2                                                                  
dos_smear  0.1 eV                                                               
popn_calculate T                                                                
PDOS_PSEUDOATOMIC T                                                             
PDOS_REDUCE_SWS F                                                               
PDOS_CONSTRUCT_BASIS F                                                          
PDOS_LOWDIN T                                                                   
PDOS_ORTH_ATOM_BLOCKS F                                                         
PDOS_LCAO_OPTIMIZE F                                                            
pdos_optados_output T                                                           
homo_plot 0                                                                     
lumo_plot 0                                                                     
homo_dens_plot -1                                                               
lumo_dens_plot -1                                                               
%BLOCK SPECIES                                                                  
C C 6 4 9.0                                                                     
%ENDBLOCK SPECIES                                                               
%BLOCK SPECIES_POT                                                              
C "~/pp/paw/c_pbe_abinit.paw"                                                   
%ENDBLOCK SPECIES_POT                                                           
%BLOCK SPECIES_ATOMIC_SET                                                       
C "SOLVE conf=2s2 2p2"                                                          
%ENDBLOCK SPECIES_ATOMIC_SET                                                    
%BLOCK LATTICE_CART                                                             
32.21  0.00  0.00                                                               
0.00 18.59  0.00                                                                
0.00  0.00 62.37                                                                
%ENDBLOCK LATTICE_CART                                                          
%BLOCK POSITIONS_ABS                                                            
C  0.00  0.00  3.12                                                             
C  0.00  0.00 15.59                                                             
C  0.00  0.00 28.07                                                             
C  0.00  0.00 40.54                                                             
C  0.00  0.00 53.01                                                             
C  0.00  4.65  3.12                                                             
C  0.00  4.65 15.59                                                             
C  0.00  4.65 28.07                                                             
C  0.00  4.65 40.54                                                             
C  0.00  4.65 53.01                                                             
C  4.03  2.32  3.12                                                             
C  4.03  2.32 15.59                                                             
C  4.03  2.32 28.07                                                             
C  4.03  2.32 40.54                                                             
C  4.03  2.32 53.01                                                             
C  8.05  0.00  3.12                                                             
C  8.05  0.00 15.59                                                             
C  8.05  0.00 28.07                                                             
C  8.05  0.00 40.54                                                             
C  8.05  0.00 53.01                                                             
C  0.00  9.30  3.12                                                             
C  0.00  9.30 15.59                                                             
C  0.00  9.30 28.07                                                             
C  0.00  9.30 40.54                                                             
C  0.00  9.30 53.01                                                             
C  4.03  6.97  3.12                                                             
C  4.03  6.97 15.59                                                             
C  4.03  6.97 28.07                                                             
C  4.03  6.97 40.54                                                             
C  4.03  6.97 53.01                                                             
C  8.05  4.65  3.12                                                             
C  8.05  4.65 15.59                                                             
C  8.05  4.65 28.07                                                             
C  8.05  4.65 40.54                                                             
C  8.05  4.65 53.01                                                             
C 12.08  2.32  3.12                                                             
C 12.08  2.32 15.59                                                             
C 12.08  2.32 28.07                                                             
C 12.08  2.32 40.54                                                             
C 12.08  2.32 53.01                                                             
C 16.10  0.00  3.12                                                             
C 16.10  0.00 15.59                                                             
C 16.10  0.00 28.07                                                             
C 16.10  0.00 40.54                                                             
C 16.10  0.00 53.01                                                             
C  0.00 13.95  3.12                                                             
C  0.00 13.95 15.59                                                             
C  0.00 13.95 28.07                                                             
C  0.00 13.95 40.54                                                             
C  0.00 13.95 53.01                                                             
C  4.03 11.62  3.12                                                             
C  4.03 11.62 15.59                                                             
C  4.03 11.62 28.07                                                             
C  4.03 11.62 40.54                                                             
C  4.03 11.62 53.01                                                             
C  8.05  9.30  3.12                                                             
C  8.05  9.30 15.59                                                             
C  8.05  9.30 28.07                                                             
C  8.05  9.30 40.54                                                             
C  8.05  9.30 53.01                                                             
C 12.08  6.97  3.12                                                             
C 12.08  6.97 15.59                                                             
C 12.08  6.97 28.07                                                             
C 12.08  6.97 40.54                                                             
C 12.08  6.97 53.01                                                             
C 16.10  4.65  3.12                                                             
C 16.10  4.65 15.59                                                             
C 16.10  4.65 28.07                                                             
C 16.10  4.65 40.54                                                             
C 16.10  4.65 53.01                                                             
C 20.13  2.32  3.12                                                             
C 20.13  2.32 15.59                                                             
C 20.13  2.32 28.07                                                             
C 20.13  2.32 40.54                                                             
C 20.13  2.32 53.01                                                             
C 24.16  0.00  3.12                                                             
C 24.16  0.00 15.59                                                             
C 24.16  0.00 28.07                                                             
C 24.16  0.00 40.54                                                             
C 24.16  0.00 53.01                                                             
C  4.03 16.27  3.12                                                             
C  4.03 16.27 15.59                                                             
C  4.03 16.27 28.07                                                             
C  4.03 16.27 40.54                                                             
C  4.03 16.27 53.01                                                             
C  8.05 13.95  3.12                                                             
C  8.05 13.95 15.59                                                             
C  8.05 13.95 28.07                                                             
C  8.05 13.95 40.54                                                             
C  8.05 13.95 53.01                                                             
C 12.08 11.62  3.12                                                             
C 12.08 11.62 15.59                                                             
C 12.08 11.62 28.07                                                             
C 12.08 11.62 40.54                                                             
C 12.08 11.62 53.01                                                             
C 16.10  9.30  3.12                                                             
C 16.10  9.30 15.59                                                             
C 16.10  9.30 28.07                                                             
C 16.10  9.30 40.54                                                             
C 16.10  9.30 53.01                                                             
C 20.13  6.97  3.12                                                             
C 20.13  6.97 15.59                                                             
C 20.13  6.97 28.07                                                             
C 20.13  6.97 40.54                                                             
C 20.13  6.97 53.01                                                             
C 24.16  4.65  3.12                                                             
C 24.16  4.65 15.59                                                             
C 24.16  4.65 28.07                                                             
C 24.16  4.65 40.54                                                             
C 24.16  4.65 53.01                                                             
C 28.18  2.32  3.12                                                             
C 28.18  2.32 15.59                                                             
C 28.18  2.32 28.07                                                             
C 28.18  2.32 40.54                                                             
C 28.18  2.32 53.01                                                             
C 12.08 16.27  3.12                                                             
C 12.08 16.27 15.59                                                             
C 12.08 16.27 28.07                                                             
C 12.08 16.27 40.54                                                             
C 12.08 16.27 53.01                                                             
C 16.10 13.95  3.12                                                             
C 16.10 13.95 15.59                                                             
C 16.10 13.95 28.07                                                             
C 16.10 13.95 40.54                                                             
C 16.10 13.95 53.01                                                             
C 20.13 11.62  3.12                                                             
C 20.13 11.62 15.59                                                             
C 20.13 11.62 28.07                                                             
C 20.13 11.62 40.54                                                             
C 20.13 11.62 53.01                                                             
C 24.16  9.30  3.12                                                             
C 24.16  9.30 15.59                                                             
C 24.16  9.30 28.07                                                             
C 24.16  9.30 40.54                                                             
C 24.16  9.30 53.01                                                             
C 28.18  6.97  3.12                                                             
C 28.18  6.97 15.59                                                             
C 28.18  6.97 28.07                                                             
C 28.18  6.97 40.54                                                             
C 28.18  6.97 53.01                                                             
C 20.13 16.27  3.12                                                             
C 20.13 16.27 15.59                                                             
C 20.13 16.27 28.07                                                             
C 20.13 16.27 40.54                                                             
C 20.13 16.27 53.01                                                             
C 24.16 13.95  3.12                                                             
C 24.16 13.95 15.59                                                             
C 24.16 13.95 28.07                                                             
C 24.16 13.95 40.54                                                             
C 24.16 13.95 53.01                                                             
C 28.18 11.62  3.12                                                             
C 28.18 11.62 15.59                                                             
C 28.18 11.62 28.07                                                             
C 28.18 11.62 40.54                                                             
C 28.18 11.62 53.01                                                             
C 28.18 16.27  3.12                                                             
C 28.18 16.27 15.59                                                             
C 28.18 16.27 28.07                                                             
C 28.18 16.27 40.54                                                             
C 28.18 16.27 53.01                                                             
C  0.00  0.00  9.36                                                             
C  0.00  0.00 21.83                                                             
C  0.00  0.00 34.30                                                             
C  0.00  0.00 46.78                                                             
C  0.00  0.00 59.25                                                             
C  0.00  4.65  9.36                                                             
C  0.00  4.65 21.83                                                             
C  0.00  4.65 34.30                                                             
C  0.00  4.65 46.78                                                             
C  0.00  4.65 59.25                                                             
C  4.03  2.32  9.36                                                             
C  4.03  2.32 21.83                                                             
C  4.03  2.32 34.30                                                             
C  4.03  2.32 46.78                                                             
C  4.03  2.32 59.25                                                             
C  8.05  0.00  9.36                                                             
C  8.05  0.00 21.83                                                             
C  8.05  0.00 34.30                                                             
C  8.05  0.00 46.78                                                             
C  8.05  0.00 59.25                                                             
C  0.00  9.30  9.36                                                             
C  0.00  9.30 21.83                                                             
C  0.00  9.30 34.30                                                             
C  0.00  9.30 46.78                                                             
C  0.00  9.30 59.25                                                             
C  4.03  6.97  9.36                                                             
C  4.03  6.97 21.83                                                             
C  4.03  6.97 34.30                                                             
C  4.03  6.97 46.78                                                             
C  4.03  6.97 59.25                                                             
C  8.05  4.65  9.36                                                             
C  8.05  4.65 21.83                                                             
C  8.05  4.65 34.30                                                             
C  8.05  4.65 46.78                                                             
C  8.05  4.65 59.25                                                             
C 12.08  2.32  9.36                                                             
C 12.08  2.32 21.83                                                             
C 12.08  2.32 34.30                                                             
C 12.08  2.32 46.78                                                             
C 12.08  2.32 59.25                                                             
C 16.10  0.00  9.36                                                             
C 16.10  0.00 21.83                                                             
C 16.10  0.00 34.30                                                             
C 16.10  0.00 46.78                                                             
C 16.10  0.00 59.25                                                             
C  0.00 13.95  9.36                                                             
C  0.00 13.95 21.83                                                             
C  0.00 13.95 34.30                                                             
C  0.00 13.95 46.78                                                             
C  0.00 13.95 59.25                                                             
C  4.03 11.62  9.36                                                             
C  4.03 11.62 21.83                                                             
C  4.03 11.62 34.30                                                             
C  4.03 11.62 46.78                                                             
C  4.03 11.62 59.25                                                             
C  8.05  9.30  9.36                                                             
C  8.05  9.30 21.83                                                             
C  8.05  9.30 34.30                                                             
C  8.05  9.30 46.78                                                             
C  8.05  9.30 59.25                                                             
C 12.08  6.97  9.36                                                             
C 12.08  6.97 21.83                                                             
C 12.08  6.97 34.30                                                             
C 12.08  6.97 46.78                                                             
C 12.08  6.97 59.25                                                             
C 16.10  4.65  9.36                                                             
C 16.10  4.65 21.83                                                             
C 16.10  4.65 34.30                                                             
C 16.10  4.65 46.78                                                             
C 16.10  4.65 59.25                                                             
C 20.13  2.32  9.36                                                             
C 20.13  2.32 21.83                                                             
C 20.13  2.32 34.30                                                             
C 20.13  2.32 46.78                                                             
C 20.13  2.32 59.25                                                             
C 24.16  0.00  9.36                                                             
C 24.16  0.00 21.83                                                             
C 24.16  0.00 34.30                                                             
C 24.16  0.00 46.78                                                             
C 24.16  0.00 59.25                                                             
C  4.03 16.27  9.36                                                             
C  4.03 16.27 21.83                                                             
C  4.03 16.27 34.30                                                             
C  4.03 16.27 46.78                                                             
C  4.03 16.27 59.25                                                             
C  8.05 13.95  9.36                                                             
C  8.05 13.95 21.83                                                             
C  8.05 13.95 34.30                                                             
C  8.05 13.95 46.78                                                             
C  8.05 13.95 59.25                                                             
C 12.08 11.62  9.36                                                             
C 12.08 11.62 21.83                                                             
C 12.08 11.62 34.30                                                             
C 12.08 11.62 46.78                                                             
C 12.08 11.62 59.25                                                             
C 16.10  9.30  9.36                                                             
C 16.10  9.30 21.83                                                             
C 16.10  9.30 34.30                                                             
C 16.10  9.30 46.78                                                             
C 16.10  9.30 59.25                                                             
C 20.13  6.97  9.36                                                             
C 20.13  6.97 21.83                                                             
C 20.13  6.97 34.30                                                             
C 20.13  6.97 46.78                                                             
C 20.13  6.97 59.25                                                             
C 24.16  4.65  9.36                                                             
C 24.16  4.65 21.83                                                             
C 24.16  4.65 34.30                                                             
C 24.16  4.65 46.78                                                             
C 24.16  4.65 59.25                                                             
C 28.18  2.32  9.36                                                             
C 28.18  2.32 21.83                                                             
C 28.18  2.32 34.30                                                             
C 28.18  2.32 46.78                                                             
C 28.18  2.32 59.25                                                             
C 12.08 16.27  9.36                                                             
C 12.08 16.27 21.83                                                             
C 12.08 16.27 34.30                                                             
C 12.08 16.27 46.78                                                             
C 12.08 16.27 59.25                                                             
C 16.10 13.95  9.36                                                             
C 16.10 13.95 21.83                                                             
C 16.10 13.95 34.30                                                             
C 16.10 13.95 46.78                                                             
C 16.10 13.95 59.25                                                             
C 20.13 11.62  9.36                                                             
C 20.13 11.62 21.83                                                             
C 20.13 11.62 34.30                                                             
C 20.13 11.62 46.78                                                             
C 20.13 11.62 59.25                                                             
C 24.16  9.30  9.36                                                             
C 24.16  9.30 21.83                                                             
C 24.16  9.30 34.30                                                             
C 24.16  9.30 46.78                                                             
C 24.16  9.30 59.25                                                             
C 28.18  6.97  9.36                                                             
C 28.18  6.97 21.83                                                             
C 28.18  6.97 34.30                                                             
C 28.18  6.97 46.78                                                             
C 28.18  6.97 59.25                                                             
C 20.13 16.27  9.36                                                             
C 20.13 16.27 21.83                                                             
C 20.13 16.27 34.30                                                             
C 20.13 16.27 46.78                                                             
C 20.13 16.27 59.25                                                             
C 24.16 13.95  9.36                                                             
C 24.16 13.95 21.83                                                             
C 24.16 13.95 34.30                                                             
C 24.16 13.95 46.78                                                             
C 24.16 13.95 59.25                                                             
C 28.18 11.62  9.36                                                             
C 28.18 11.62 21.83                                                             
C 28.18 11.62 34.30                                                             
C 28.18 11.62 46.78                                                             
C 28.18 11.62 59.25                                                             
C 28.18 16.27  9.36                                                             
C 28.18 16.27 21.83                                                             
C 28.18 16.27 34.30                                                             
C 28.18 16.27 46.78                                                             
C 28.18 16.27 59.25                                                             
C  1.34  2.32  3.12                                                             
C  1.34  2.32 15.59                                                             
C  1.34  2.32 28.07                                                             
C  1.34  2.32 40.54                                                             
C  1.34  2.32 53.01                                                             
C  5.37  0.00  3.12                                                             
C  5.37  0.00 15.59                                                             
C  5.37  0.00 28.07                                                             
C  5.37  0.00 40.54                                                             
C  5.37  0.00 53.01                                                             
C  1.34  6.97  3.12                                                             
C  1.34  6.97 15.59                                                             
C  1.34  6.97 28.07                                                             
C  1.34  6.97 40.54                                                             
C  1.34  6.97 53.01                                                             
C  5.37  4.65  3.12                                                             
C  5.37  4.65 15.59                                                             
C  5.37  4.65 28.07                                                             
C  5.37  4.65 40.54                                                             
C  5.37  4.65 53.01                                                             
C  9.39  2.32  3.12                                                             
C  9.39  2.32 15.59                                                             
C  9.39  2.32 28.07                                                             
C  9.39  2.32 40.54                                                             
C  9.39  2.32 53.01                                                             
C 13.42  0.00  3.12                                                             
C 13.42  0.00 15.59                                                             
C 13.42  0.00 28.07                                                             
C 13.42  0.00 40.54                                                             
C 13.42  0.00 53.01                                                             
C  1.34 11.62  3.12                                                             
C  1.34 11.62 15.59                                                             
C  1.34 11.62 28.07                                                             
C  1.34 11.62 40.54                                                             
C  1.34 11.62 53.01                                                             
C  5.37  9.30  3.12                                                             
C  5.37  9.30 15.59                                                             
C  5.37  9.30 28.07                                                             
C  5.37  9.30 40.54                                                             
C  5.37  9.30 53.01                                                             
C  9.39  6.97  3.12                                                             
C  9.39  6.97 15.59                                                             
C  9.39  6.97 28.07                                                             
C  9.39  6.97 40.54                                                             
C  9.39  6.97 53.01                                                             
C 13.42  4.65  3.12                                                             
C 13.42  4.65 15.59                                                             
C 13.42  4.65 28.07                                                             
C 13.42  4.65 40.54                                                             
C 13.42  4.65 53.01                                                             
C 17.45  2.32  3.12                                                             
C 17.45  2.32 15.59                                                             
C 17.45  2.32 28.07                                                             
C 17.45  2.32 40.54                                                             
C 17.45  2.32 53.01                                                             
C 21.47  0.00  3.12                                                             
C 21.47  0.00 15.59                                                             
C 21.47  0.00 28.07                                                             
C 21.47  0.00 40.54                                                             
C 21.47  0.00 53.01                                                             
C  1.34 16.27  3.12                                                             
C  1.34 16.27 15.59                                                             
C  1.34 16.27 28.07                                                             
C  1.34 16.27 40.54                                                             
C  1.34 16.27 53.01                                                             
C  5.37 13.95  3.12                                                             
C  5.37 13.95 15.59                                                             
C  5.37 13.95 28.07                                                             
C  5.37 13.95 40.54                                                             
C  5.37 13.95 53.01                                                             
C  9.39 11.62  3.12                                                             
C  9.39 11.62 15.59                                                             
C  9.39 11.62 28.07                                                             
C  9.39 11.62 40.54                                                             
C  9.39 11.62 53.01                                                             
C 13.42  9.30  3.12                                                             
C 13.42  9.30 15.59                                                             
C 13.42  9.30 28.07                                                             
C 13.42  9.30 40.54                                                             
C 13.42  9.30 53.01                                                             
C 17.45  6.97  3.12                                                             
C 17.45  6.97 15.59                                                             
C 17.45  6.97 28.07                                                             
C 17.45  6.97 40.54                                                             
C 17.45  6.97 53.01                                                             
C 21.47  4.65  3.12                                                             
C 21.47  4.65 15.59                                                             
C 21.47  4.65 28.07                                                             
C 21.47  4.65 40.54                                                             
C 21.47  4.65 53.01                                                             
C 25.50  2.32  3.12                                                             
C 25.50  2.32 15.59                                                             
C 25.50  2.32 28.07                                                             
C 25.50  2.32 40.54                                                             
C 25.50  2.32 53.01                                                             
C 29.52  0.00  3.12                                                             
C 29.52  0.00 15.59                                                             
C 29.52  0.00 28.07                                                             
C 29.52  0.00 40.54                                                             
C 29.52  0.00 53.01                                                             
C  9.39 16.27  3.12                                                             
C  9.39 16.27 15.59                                                             
C  9.39 16.27 28.07                                                             
C  9.39 16.27 40.54                                                             
C  9.39 16.27 53.01                                                             
C 13.42 13.95  3.12                                                             
C 13.42 13.95 15.59                                                             
C 13.42 13.95 28.07                                                             
C 13.42 13.95 40.54                                                             
C 13.42 13.95 53.01                                                             
C 17.45 11.62  3.12                                                             
C 17.45 11.62 15.59                                                             
C 17.45 11.62 28.07                                                             
C 17.45 11.62 40.54                                                             
C 17.45 11.62 53.01                                                             
C 21.47  9.30  3.12                                                             
C 21.47  9.30 15.59                                                             
C 21.47  9.30 28.07                                                             
C 21.47  9.30 40.54                                                             
C 21.47  9.30 53.01                                                             
C 25.50  6.97  3.12                                                             
C 25.50  6.97 15.59                                                             
C 25.50  6.97 28.07                                                             
C 25.50  6.97 40.54                                                             
C 25.50  6.97 53.01                                                             
C 29.52  4.65  3.12                                                             
C 29.52  4.65 15.59                                                             
C 29.52  4.65 28.07                                                             
C 29.52  4.65 40.54                                                             
C 29.52  4.65 53.01                                                             
C 17.45 16.27  3.12                                                             
C 17.45 16.27 15.59                                                             
C 17.45 16.27 28.07                                                             
C 17.45 16.27 40.54                                                             
C 17.45 16.27 53.01                                                             
C 21.47 13.95  3.12                                                             
C 21.47 13.95 15.59                                                             
C 21.47 13.95 28.07                                                             
C 21.47 13.95 40.54                                                             
C 21.47 13.95 53.01                                                             
C 25.50 11.62  3.12                                                             
C 25.50 11.62 15.59                                                             
C 25.50 11.62 28.07                                                             
C 25.50 11.62 40.54                                                             
C 25.50 11.62 53.01                                                             
C 29.52  9.30  3.12                                                             
C 29.52  9.30 15.59                                                             
C 29.52  9.30 28.07                                                             
C 29.52  9.30 40.54                                                             
C 29.52  9.30 53.01                                                             
C 25.50 16.27  3.12                                                             
C 25.50 16.27 15.59                                                             
C 25.50 16.27 28.07                                                             
C 25.50 16.27 40.54                                                             
C 25.50 16.27 53.01                                                             
C 29.52 13.95  3.12                                                             
C 29.52 13.95 15.59                                                             
C 29.52 13.95 28.07                                                             
C 29.52 13.95 40.54                                                             
C 29.52 13.95 53.01                                                             
C  2.68  0.00  9.36                                                             
C  2.68  0.00 21.83                                                             
C  2.68  0.00 34.30                                                             
C  2.68  0.00 46.78                                                             
C  2.68  0.00 59.25                                                             
C  2.68  4.65  9.36                                                             
C  2.68  4.65 21.83                                                             
C  2.68  4.65 34.30                                                             
C  2.68  4.65 46.78                                                             
C  2.68  4.65 59.25                                                             
C  6.71  2.32  9.36                                                             
C  6.71  2.32 21.83                                                             
C  6.71  2.32 34.30                                                             
C  6.71  2.32 46.78                                                             
C  6.71  2.32 59.25                                                             
C 10.74  0.00  9.36                                                             
C 10.74  0.00 21.83                                                             
C 10.74  0.00 34.30                                                             
C 10.74  0.00 46.78                                                             
C 10.74  0.00 59.25                                                             
C  2.68  9.30  9.36                                                             
C  2.68  9.30 21.83                                                             
C  2.68  9.30 34.30                                                             
C  2.68  9.30 46.78                                                             
C  2.68  9.30 59.25                                                             
C  6.71  6.97  9.36                                                             
C  6.71  6.97 21.83                                                             
C  6.71  6.97 34.30                                                             
C  6.71  6.97 46.78                                                             
C  6.71  6.97 59.25                                                             
C 10.74  4.65  9.36                                                             
C 10.74  4.65 21.83                                                             
C 10.74  4.65 34.30                                                             
C 10.74  4.65 46.78                                                             
C 10.74  4.65 59.25                                                             
C 14.76  2.32  9.36                                                             
C 14.76  2.32 21.83                                                             
C 14.76  2.32 34.30                                                             
C 14.76  2.32 46.78                                                             
C 14.76  2.32 59.25                                                             
C 18.79  0.00  9.36                                                             
C 18.79  0.00 21.83                                                             
C 18.79  0.00 34.30                                                             
C 18.79  0.00 46.78                                                             
C 18.79  0.00 59.25                                                             
C  2.68 13.95  9.36                                                             
C  2.68 13.95 21.83                                                             
C  2.68 13.95 34.30                                                             
C  2.68 13.95 46.78                                                             
C  2.68 13.95 59.25                                                             
C  6.71 11.62  9.36                                                             
C  6.71 11.62 21.83                                                             
C  6.71 11.62 34.30                                                             
C  6.71 11.62 46.78                                                             
C  6.71 11.62 59.25                                                             
C 10.74  9.30  9.36                                                             
C 10.74  9.30 21.83                                                             
C 10.74  9.30 34.30                                                             
C 10.74  9.30 46.78                                                             
C 10.74  9.30 59.25                                                             
C 14.76  6.97  9.36                                                             
C 14.76  6.97 21.83                                                             
C 14.76  6.97 34.30                                                             
C 14.76  6.97 46.78                                                             
C 14.76  6.97 59.25                                                             
C 18.79  4.65  9.36                                                             
C 18.79  4.65 21.83                                                             
C 18.79  4.65 34.30                                                             
C 18.79  4.65 46.78                                                             
C 18.79  4.65 59.25                                                             
C 22.81  2.32  9.36                                                             
C 22.81  2.32 21.83                                                             
C 22.81  2.32 34.30                                                             
C 22.81  2.32 46.78                                                             
C 22.81  2.32 59.25                                                             
C 26.84  0.00  9.36                                                             
C 26.84  0.00 21.83                                                             
C 26.84  0.00 34.30                                                             
C 26.84  0.00 46.78                                                             
C 26.84  0.00 59.25                                                             
C  6.71 16.27  9.36                                                             
C  6.71 16.27 21.83                                                             
C  6.71 16.27 34.30                                                             
C  6.71 16.27 46.78                                                             
C  6.71 16.27 59.25                                                             
C 10.74 13.95  9.36                                                             
C 10.74 13.95 21.83                                                             
C 10.74 13.95 34.30                                                             
C 10.74 13.95 46.78                                                             
C 10.74 13.95 59.25                                                             
C 14.76 11.62  9.36                                                             
C 14.76 11.62 21.83                                                             
C 14.76 11.62 34.30                                                             
C 14.76 11.62 46.78                                                             
C 14.76 11.62 59.25                                                             
C 18.79  9.30  9.36                                                             
C 18.79  9.30 21.83                                                             
C 18.79  9.30 34.30                                                             
C 18.79  9.30 46.78                                                             
C 18.79  9.30 59.25                                                             
C 22.81  6.97  9.36                                                             
C 22.81  6.97 21.83                                                             
C 22.81  6.97 34.30                                                             
C 22.81  6.97 46.78                                                             
C 22.81  6.97 59.25                                                             
C 26.84  4.65  9.36                                                             
C 26.84  4.65 21.83                                                             
C 26.84  4.65 34.30                                                             
C 26.84  4.65 46.78                                                             
C 26.84  4.65 59.25                                                             
C 30.86  2.32  9.36                                                             
C 30.86  2.32 21.83                                                             
C 30.86  2.32 34.30                                                             
C 30.86  2.32 46.78                                                             
C 30.86  2.32 59.25                                                             
C 14.76 16.27  9.36                                                             
C 14.76 16.27 21.83                                                             
C 14.76 16.27 34.30                                                             
C 14.76 16.27 46.78                                                             
C 14.76 16.27 59.25                                                             
C 18.79 13.95  9.36                                                             
C 18.79 13.95 21.83                                                             
C 18.79 13.95 34.30                                                             
C 18.79 13.95 46.78                                                             
C 18.79 13.95 59.25                                                             
C 22.81 11.62  9.36                                                             
C 22.81 11.62 21.83                                                             
C 22.81 11.62 34.30                                                             
C 22.81 11.62 46.78                                                             
C 22.81 11.62 59.25                                                             
C 26.84  9.30  9.36                                                             
C 26.84  9.30 21.83                                                             
C 26.84  9.30 34.30                                                             
C 26.84  9.30 46.78                                                             
C 26.84  9.30 59.25                                                             
C 30.86  6.97  9.36                                                             
C 30.86  6.97 21.83                                                             
C 30.86  6.97 34.30                                                             
C 30.86  6.97 46.78                                                             
C 30.86  6.97 59.25                                                             
C 22.81 16.27  9.36                                                             
C 22.81 16.27 21.83                                                             
C 22.81 16.27 34.30                                                             
C 22.81 16.27 46.78                                                             
C 22.81 16.27 59.25                                                             
C 26.84 13.95  9.36                                                             
C 26.84 13.95 21.83                                                             
C 26.84 13.95 34.30                                                             
C 26.84 13.95 46.78                                                             
C 26.84 13.95 59.25                                                             
C 30.86 11.62  9.36                                                             
C 30.86 11.62 21.83                                                             
C 30.86 11.62 34.30                                                             
C 30.86 11.62 46.78                                                             
C 30.86 11.62 59.25                                                             
C 30.86 16.27  9.36                                                             
C 30.86 16.27 21.83                                                             
C 30.86 16.27 34.30                                                             
C 30.86 16.27 46.78                                                             
C 30.86 16.27 59.25                                                             
%ENDBLOCK POSITIONS_ABS                                                         

--------------------------------------------------------------------------------
-------------------------------- END INPUT FILE --------------------------------
--------------------------------------------------------------------------------


 
<<<<<<<<<<<<<<<<<<<<<<<<<<<<<<<<< Full system >>>>>>>>>>>>>>>>>>>>>>>>>>>>>>>>>>
<<<<<<<<<<<<<<<<<<<<<<<<<<< PAW Dataset information >>>>>>>>>>>>>>>>>>>>>>>>>>>
File: ~/pp/paw/c_pbe_abinit.paw; rc = 1.25 bohr; shape type =  3; rshape = 1.25 bohr;
  Atomic number:  6;  ionic charge:  4.000000
    Partial Wave 1: l = 0
    Partial Wave 2: l = 0
    Partial Wave 3: l = 1
    Partial Wave 4: l = 1
  Core charge supplied for Nonlinear Core Corrections
<<<<<<<<<<<<<<<<<<<<<<<<<<<<<<<<<<<<<<< >>>>>>>>>>>>>>>>>>>>>>>>>>>>>>>>>>>>>>>

-------------------------- Atom counting information ---------------------------
Symbol    Natoms    Nngwfs    Nprojs
  C        640      2560      5120
.......   ......    ......    ......
Totals:    640      2560      5120
--------------------------------------------------------------------------------

=============================== PSINC grid sizes ===============================
                      Simulation cell:   63 x  35 x 123
                              FFT-box:   63 x  35 x 117
                                  PPD:    7 x   5 x   1
Grid space d1=  0.511269841270a0 (KE cutoff=  29.06054Eh = 790.77748eV)
Grid space d2=  0.531142857143a0 (KE cutoff=  26.92659Eh = 732.70972eV)
Grid space d3=  0.507073170732a0 (KE cutoff=  29.54355Eh = 803.92101eV)
================================================================================
  
WARNING in cell_grid_distribute:
Average of less than one 23-slab per node, so workload cannot be
equally balanced between nodes.

********************* Fourier parallelisation information **********************
       Coarse grid (whole simulation cell) dimensions:     63    35   123
          Real-space ('12') slabs/node (min max mean):      3     4     3
         Recip-space ('23') slabs/node (min max mean):      0     1     0
********************************************************************************

********************* Fourier parallelisation information **********************
       Double grid (whole simulation cell) dimensions:    126    70   246
          Real-space ('12') slabs/node (min max mean):      6     7     6
         Recip-space ('23') slabs/node (min max mean):      1     2     1
********************************************************************************

Atom SCF Calculation for C  : Z (AE atom) =   6 : Z (PS atom) =   4
Config String: 2s2 2p2
Orbitals (num,occ):  2     2.00 2.00
Orbitals   (num,l):  2        0    1
Real-space Grid (nr,dr,rmax): 1293    0.0069659443    9.0000000000
Spherical Bessel Basis (nsws,lmax,cutoff):   37    2  161.4736382572
Confining potential (l,width,scale):  0    3.0000000000  100.0000000000
Confining potential (l,width,scale):  1    3.0000000000  100.0000000000
  1         -5.4795203654   -1.3252209296    4.5135257941   -1.6370402169
  2         -5.4480859746   -1.4027979239    4.4305951748   -1.6109819005
  3         -5.4553164790   -1.4212834043    4.4102618304   -1.6059039466
  4         -5.4627841133   -1.4247091338    4.4065122085   -1.6052907585
  5         -5.4662306655   -1.4266814823    4.4043715292   -1.6049352647
  6         -5.4679520247   -1.4277352742    4.4032348712   -1.6047493439
  7         -5.4688359568   -1.4282868030    4.4026432892   -1.6046541449
  8         -5.4692951245   -1.4285734530    4.4023374832   -1.6046056242
  9         -5.4695349887   -1.4287220785    4.4021797781   -1.6045809101
 10         -5.4696606791   -1.4287991022    4.4020984905   -1.6045683155
 11         -5.4697266650   -1.4288390363    4.4020565747   -1.6045618912
 12         -5.4697613504   -1.4288597596    4.4020349416   -1.6045586107
 13         -5.4697795998   -1.4288705262    4.4020237638   -1.6045569335
 14         -5.4697892089   -1.4288761271    4.4020179806   -1.6045560749
 15         -5.4697942720   -1.4288790448    4.4020149844   -1.6045556348
 16         -5.4697969415   -1.4288805668    4.4020134298   -1.6045554088
 17         -5.4697983498   -1.4288813619    4.4020126220   -1.6045552927
 18         -5.4697990933   -1.4288817779    4.4020122017   -1.6045552329
 19         -5.4697994860   -1.4288819957    4.4020119826   -1.6045552021
 20         -5.4697996936   -1.4288821100    4.4020118683   -1.6045551862
 21         -5.4697998034   -1.4288821701    4.4020118085   -1.6045551780
 22         -5.4697998614   -1.4288822017    4.4020117772   -1.6045551737
Atom SCF converged after  22 iterations to a total energy of     -5.46979986

Determining parallel strategy ...
... using space-filling curve
... NGWF load balancing: max     64;  min     64;  average     64
... Projector load balancing: max    128;  min    128;  average    128
... done
Calculating Ewald energy ...
              Ewald: real-space energy =    9509.243353
        Ewald: reciprocal-space energy =       0.067800
         Ewald: (sum_charge)**2 Energy =   11375.609033
         Ewald: (sum_charge**2) Energy =     899.320858
                          Ewald Energy =   -2765.618738
Basis initialisation ...... NGWF spheres initialised
... Projector spheres initialised
... NGWF tight boxes initialised
... Projector tight boxes initialised
... Tight-boxes gathered
... NGWF basis size (local,global):     693716  27896960
... PAW projector initialisation
... done

============================= Charge Augmentation ==============================
                           Aug box size:   11 x  11 x  11
================================================================================

========================== Sparse matrix information ===========================
                        Overlap matrix filling:  44.38%
                        Density kernel filling: 100.00%
              NGWF-Proj overlap matrix filling:  13.12%
                    Aug Overlap matrix filling:  47.81%
                    Hamiltonian matrix filling:  47.81%
                  NGWF diagonal matrix filling:   0.16%
                             KS matrix filling: 100.00% 
                           KSKS matrix filling: 100.00% 
================================================================================

Sparse matrix initialisation ... done
NGWF initialisation ...... done
============ Calculation of NGWF S^-1 using Hotelling algorithm ================ 
         Iteration  |  Frobenius norm and Maximum abs value    (of I-S*S_n^-1)   
               1       0.49181512E+02     0.97752669E+00
               2       0.48037105E+02     0.95686931E+00
               3       0.46296257E+02     0.92002744E+00
               4       0.44003647E+02     0.85939891E+00
               5       0.41231229E+02     0.76908563E+00
               6       0.37955676E+02     0.68775151E+00
               7       0.34450444E+02     0.63806061E+00
               8       0.31090940E+02     0.59662298E+00
               9       0.27608059E+02     0.55428093E+00
              10       0.23287617E+02     0.49026526E+00
              11       0.17631245E+02     0.38714903E+00
              12       0.10913543E+02     0.24613454E+00
              13       0.47387390E+01     0.10525067E+00
              14       0.10674226E+01     0.21855104E-01
              15       0.65173302E-01     0.11547599E-02
              16       0.31202998E-03     0.41800712E-05
              17       0.10795527E-07     0.88252738E-10
              18       0.82378218E-13     0.39968029E-14
================================================================================
Calculating core density ...
================================= Core Density =================================
               Core den box size:   21 x  21 x  21
================================================================================
 ... done
Up spin density kernel initialisation ...... done

Writing density kernel to file "3.3003376_GO_manual_4x64graphite.dkn" ... done

>>> Optimising kernel for current NGWFs:

--------------------------- Ensemble-DFT optimisation --------------------------
Running ScaLAPACK on   40 processor(s).

--------------------------------------------------------------------------------
  Iter                              Commutator    Free_energy(A=E-TS)     DeltaA
#    0                          0.000040815094   -3651.39034399508455  -3.65E+03

Step                       =       0.381966011250
Energy                     =   -3651.390309402638
Entropy (-TS)              =      -0.000034592664
Free energy (A=E-TS)       =   -3651.390343995085
Est. 0K Energy 0.5*(E+A)   =   -3651.390326698861
Residual Non-orthogonality =       0.000000000000
Residual N_electrons       =       0.000000000217

Spin          Integrated_Ne            Fermi_level     Delta_Fermi_level
   1      2559.999999999016         0.220843948328              2.21E-01

                           Spin 1          
     Orb      H-eigenvalues     Occupancies
       1 |    -0.5038504100    1.0000000000 | 
                          ------
    1276 |     0.1873608047    0.9999744064 | 
    1277 |     0.1879714864    0.9999689631 | 
    1278 |     0.1879818278    0.9999688616 | 
    1279 |     0.1884585450    0.9999638031 | 
    1280 |     0.1890711645    0.9999560780 | 
                 - Gap at zero temperature -
    1281 |     0.2551822949    0.0000195368 | 
    1282 |     0.2551868682    0.0000195086 | 
    1283 |     0.2552864802    0.0000189045 | 
    1284 |     0.2554102811    0.0000181797 | 
    1285 |     0.2554148822    0.0000181533 | 
                          ------
    2560 |     1.0551354235    0.0000000000 | 

                       |  Abs_value |  Threshold | Converged
     Delta_Free_energy |   3.65E+03 |   1.00E-06 |        No
     Delta_Energy      |   3.65E+03 |   1.00E-04 |        No
     Delta_Entropy     |   3.46E-05 |   1.00E-04 |       Yes
     Commutator        |   4.08E-05 |   1.00E-05 |        No
     Delta_Fermi_level |   2.21E-01 |   1.00E-03 |        No

  Line search of the free energy minimum:
  Step_type        Step             Free_energy   Predicted_free_energy
.   Initial    0.000000    -3651.39034399508455
.    Trial1    0.381966    -3651.39203607143872
.    Trial2    0.618034    -3651.39194529550105
. Quadratic    0.475319    -3651.39210342167371    -3651.39210395846703

--------------------------------------------------------------------------------
  Iter                              Commutator    Free_energy(A=E-TS)     DeltaA
#    1                          0.000021019391   -3651.39210342167371  -1.76E-03

Step                       =       0.475318606958
Energy                     =   -3651.392069652107
Entropy (-TS)              =      -0.000033769808
Free energy (A=E-TS)       =   -3651.392103421674
Est. 0K Energy 0.5*(E+A)   =   -3651.392086536890
Residual Non-orthogonality =       0.000000000000
Residual N_electrons       =       0.000000000242

Spin          Integrated_Ne            Fermi_level     Delta_Fermi_level
   1      2559.999999998913         0.222635646809              1.79E-03

                           Spin 1          
     Orb      H-eigenvalues     Occupancies
       1 |    -0.5029906974    1.0000000000 | 
                          ------
    1276 |     0.1891413974    0.9999744960 | 
    1277 |     0.1896309792    0.9999702321 | 
    1278 |     0.1896329002    0.9999702140 | 
    1279 |     0.1902627358    0.9999636601 | 
    1280 |     0.1907460820    0.9999576682 | 
                 - Gap at zero temperature -
    1281 |     0.2570295306    0.0000191971 | 
    1282 |     0.2570356021    0.0000191604 | 
    1283 |     0.2571540157    0.0000184572 | 
    1284 |     0.2572684206    0.0000178023 | 
    1285 |     0.2572912870    0.0000176742 | 
                          ------
    2560 |     1.0581540940    0.0000000000 | 

                       |  Abs_value |  Threshold | Converged
     Delta_Free_energy |   1.76E-03 |   1.00E-06 |        No
     Delta_Energy      |   1.76E-03 |   1.00E-04 |        No
     Delta_Entropy     |   8.23E-07 |   1.00E-04 |       Yes
     Commutator        |   2.10E-05 |   1.00E-05 |        No
     Delta_Fermi_level |   1.79E-03 |   1.00E-03 |        No

  Line search of the free energy minimum:
  Step_type        Step             Free_energy   Predicted_free_energy
.   Initial    0.000000    -3651.39210342167371
.    Trial1    0.475319    -3651.39232466772455
.    Trial2    0.675729    -3651.39180063055846
. Quadratic    0.288715    -3651.39248411705466    -3651.39248339811684

--------------------------------------------------------------------------------
  Iter                              Commutator    Free_energy(A=E-TS)     DeltaA
#    2                          0.000013473982   -3651.39248411705466  -3.81E-04

Step                       =       0.288714733250
Energy                     =   -3651.392450688660
Entropy (-TS)              =      -0.000033428495
Free energy (A=E-TS)       =   -3651.392484117055
Est. 0K Energy 0.5*(E+A)   =   -3651.392467402857
Residual Non-orthogonality =       0.000000000000
Residual N_electrons       =       0.000000000100

Spin          Integrated_Ne            Fermi_level     Delta_Fermi_level
   1      2559.999999999553         0.223175006111              5.39E-04

                           Spin 1          
     Orb      H-eigenvalues     Occupancies
       1 |    -0.5027270907    1.0000000000 | 
                          ------
    1276 |     0.1896278543    0.9999749185 | 
    1277 |     0.1901521517    0.9999704026 | 
    1278 |     0.1901548241    0.9999703776 | 
    1279 |     0.1907455940    0.9999643027 | 
    1280 |     0.1912642532    0.9999579504 | 
                 - Gap at zero temperature -
    1281 |     0.2576096283    0.0000189518 | 
    1282 |     0.2576162857    0.0000189120 | 
    1283 |     0.2577326372    0.0000182298 | 
    1284 |     0.2578574118    0.0000175255 | 
    1285 |     0.2578807545    0.0000173968 | 
                          ------
    2560 |     1.0590960884    0.0000000000 | 

                       |  Abs_value |  Threshold | Converged
     Delta_Free_energy |   3.81E-04 |   1.00E-06 |        No
     Delta_Energy      |   3.81E-04 |   1.00E-04 |        No
     Delta_Entropy     |   3.41E-07 |   1.00E-04 |       Yes
     Commutator        |   1.35E-05 |   1.00E-05 |        No
     Delta_Fermi_level |   5.39E-04 |   1.00E-03 |       Yes

  Line search of the free energy minimum:
  Step_type        Step             Free_energy   Predicted_free_energy
.   Initial    0.000000    -3651.39248411705466
.    Trial1    0.288715    -3651.39263188068435
.    Trial2    0.560402    -3651.39251892010452
. Quadratic    0.298961    -3651.39263204779309    -3651.39263205445786

--------------------------------------------------------------------------------
  Iter                              Commutator    Free_energy(A=E-TS)     DeltaA
#    3                          0.000009457262   -3651.39263204779309  -1.48E-04

Step                       =       0.298961039496
Energy                     =   -3651.392598858682
Entropy (-TS)              =      -0.000033189579
Free energy (A=E-TS)       =   -3651.392632047793
Est. 0K Energy 0.5*(E+A)   =   -3651.392615453237
Residual Non-orthogonality =       0.000000000000
Residual N_electrons       =       0.000000000467

Spin          Integrated_Ne            Fermi_level     Delta_Fermi_level
   1      2559.999999997911         0.223574310022              3.99E-04

                           Spin 1          
     Orb      H-eigenvalues     Occupancies
       1 |    -0.5025274360    1.0000000000 | 
                          ------
    1276 |     0.1899996684    0.9999751352 | 
    1277 |     0.1905305820    0.9999705970 | 
    1278 |     0.1905335574    0.9999705694 | 
    1279 |     0.1911169445    0.9999646164 | 
    1280 |     0.1916424901    0.9999582292 | 
                 - Gap at zero temperature -
    1281 |     0.2580334265    0.0000188058 | 
    1282 |     0.2580402894    0.0000187650 | 
    1283 |     0.2581567756    0.0000180874 | 
    1284 |     0.2582825567    0.0000173830 | 
    1285 |     0.2583060203    0.0000172547 | 
                          ------
    2560 |     1.0598015906    0.0000000000 | 

                       |  Abs_value |  Threshold | Converged
     Delta_Free_energy |   1.48E-04 |   1.00E-06 |        No
     Delta_Energy      |   1.48E-04 |   1.00E-04 |        No
     Delta_Entropy     |   2.39E-07 |   1.00E-04 |       Yes
     Commutator        |   9.46E-06 |   1.00E-05 |       Yes
     Delta_Fermi_level |   3.99E-04 |   1.00E-03 |       Yes

  Line search of the free energy minimum:
  Step_type        Step             Free_energy   Predicted_free_energy
.   Initial    0.000000    -3651.39263204779309
.    Trial1    0.298961    -3651.39270166912547
.    Trial2    0.566734    -3651.39262453059473
. Quadratic    0.276152    -3651.39270215301076    -3651.39270214734279

--------------------------------------------------------------------------------
  Iter                              Commutator    Free_energy(A=E-TS)     DeltaA
#    4                          0.000006720354   -3651.39270215301076  -7.01E-05

Step                       =       0.276152179407
Energy                     =   -3651.392669113437
[...]
 C   160 -- C   385       -0.10      5.37000
 C   159 -- C   384       -0.10      5.37000
 C   158 -- C   383       -0.10      5.37000
 C   157 -- C   382       -0.10      5.37000
 C   156 -- C   381       -0.10      5.37000
 C   155 -- C   355       -0.10      5.37000
 C   154 -- C   354       -0.10      5.37000
 C   153 -- C   353       -0.10      5.37000
 C   152 -- C   352       -0.10      5.37000
 C   151 -- C   351       -0.10      5.37000
 C   140 -- C   335       -0.10      5.37000
 C   139 -- C   334       -0.10      5.37000
 C   138 -- C   333       -0.10      5.37000
 C   137 -- C   332       -0.10      5.37000
 C   136 -- C   331       -0.10      5.37000
 C   115 -- C   325       -0.10      5.37000
 C   114 -- C   324       -0.10      5.37000
 C   113 -- C   323       -0.10      5.37000
 C   112 -- C   322       -0.10      5.37000
 C   111 -- C   321       -0.10      5.37000
 C   219 -- C   569       -0.10      5.37202
 C   218 -- C   568       -0.10      5.37202
 C   217 -- C   567       -0.10      5.37202
 C   216 -- C   566       -0.10      5.37202
 C   250 -- C   540       -0.10      5.37202
 C   249 -- C   539       -0.10      5.37202
 C   248 -- C   538       -0.10      5.37202
 C   247 -- C   537       -0.10      5.37202
 C   246 -- C   536       -0.10      5.37202
 C   220 -- C   570       -0.10      5.37202
 C   285 -- C   580       -0.10      5.37202
 C   284 -- C   579       -0.10      5.37202
 C   283 -- C   578       -0.10      5.37202
 C   282 -- C   577       -0.10      5.37202
 C   281 -- C   576       -0.10      5.37202
 C   260 -- C   605       -0.10      5.37202
 C   259 -- C   604       -0.10      5.37202
 C   258 -- C   603       -0.10      5.37202
 C   257 -- C   602       -0.10      5.37202
 C   256 -- C   601       -0.10      5.37202
 C   220 -- C   515       -0.10      5.37202
 C   219 -- C   514       -0.10      5.37202
 C   218 -- C   513       -0.10      5.37202
 C   217 -- C   512       -0.10      5.37202
 C   216 -- C   511       -0.10      5.37202
 C   195 -- C   540       -0.10      5.37202
 C   195 -- C   500       -0.10      5.37202
 C   194 -- C   539       -0.10      5.37202
 C   194 -- C   499       -0.10      5.37202
 C   193 -- C   538       -0.10      5.37202
 C   193 -- C   498       -0.10      5.37202
 C   192 -- C   537       -0.10      5.37202
 C   192 -- C   497       -0.10      5.37202
 C   191 -- C   536       -0.10      5.37202
 C   191 -- C   496       -0.10      5.37202
 C   180 -- C   515       -0.10      5.37202
 C   179 -- C   514       -0.10      5.37202
 C   178 -- C   513       -0.10      5.37202
 C   177 -- C   512       -0.10      5.37202
 C   176 -- C   511       -0.10      5.37202
 C    11 -- C   331       -0.10      5.37202
 C   205 -- C   550       -0.10      5.37202
 C   204 -- C   549       -0.10      5.37202
 C   203 -- C   548       -0.10      5.37202
 C   202 -- C   547       -0.10      5.37202
 C   201 -- C   546       -0.10      5.37202
 C    95 -- C   425       -0.10      5.37202
 C    95 -- C   365       -0.10      5.37202
 C    94 -- C   424       -0.10      5.37202
 C    94 -- C   364       -0.10      5.37202
 C    93 -- C   423       -0.10      5.37202
 C    93 -- C   363       -0.10      5.37202
 C    92 -- C   422       -0.10      5.37202
 C    92 -- C   362       -0.10      5.37202
 C    91 -- C   421       -0.10      5.37202
 C    91 -- C   361       -0.10      5.37202
 C    40 -- C   365       -0.10      5.37202
 C    39 -- C   364       -0.10      5.37202
 C    38 -- C   363       -0.10      5.37202
 C    37 -- C   362       -0.10      5.37202
 C    36 -- C   361       -0.10      5.37202
 C    15 -- C   335       -0.10      5.37202
 C    65 -- C   395       -0.10      5.37202
 C    65 -- C   345       -0.10      5.37202
 C    64 -- C   394       -0.10      5.37202
 C    64 -- C   344       -0.10      5.37202
 C    63 -- C   393       -0.10      5.37202
 C    30 -- C   355       -0.10      5.37202
 C    63 -- C   343       -0.10      5.37202
 C    62 -- C   392       -0.10      5.37202
 C    30 -- C   325       -0.10      5.37202
 C    14 -- C   334       -0.10      5.37202
 C    62 -- C   342       -0.10      5.37202
 C    61 -- C   391       -0.10      5.37202
 C    29 -- C   354       -0.10      5.37202
 C    61 -- C   341       -0.10      5.37202
 C    29 -- C   324       -0.10      5.37202
 C   260 -- C   550       -0.10      5.37202
 C   259 -- C   549       -0.10      5.37202
 C    28 -- C   353       -0.10      5.37202
 C   258 -- C   548       -0.10      5.37202
 C   257 -- C   547       -0.10      5.37202
 C   256 -- C   546       -0.10      5.37202
 C    28 -- C   323       -0.10      5.37202
 C    27 -- C   352       -0.10      5.37202
 C    13 -- C   333       -0.10      5.37202
 C    27 -- C   322       -0.10      5.37202
 C   120 -- C   395       -0.10      5.37202
 C    26 -- C   351       -0.10      5.37202
 C   119 -- C   394       -0.10      5.37202
 C   118 -- C   393       -0.10      5.37202
 C    55 -- C   335       -0.10      5.37202
 C   117 -- C   392       -0.10      5.37202
 C    26 -- C   321       -0.10      5.37202
 C   116 -- C   391       -0.10      5.37202
 C    54 -- C   334       -0.10      5.37202
 C    12 -- C   332       -0.10      5.37202
 C    53 -- C   333       -0.10      5.37202
 C   230 -- C   580       -0.10      5.37202
 C   230 -- C   525       -0.10      5.37202
 C   229 -- C   579       -0.10      5.37202
 C   229 -- C   524       -0.10      5.37202
 C   228 -- C   578       -0.10      5.37202
 C    52 -- C   332       -0.10      5.37202
 C   228 -- C   523       -0.10      5.37202
 C   227 -- C   577       -0.10      5.37202
 C   227 -- C   522       -0.10      5.37202
 C   226 -- C   576       -0.10      5.37202
 C   226 -- C   521       -0.10      5.37202
 C    51 -- C   331       -0.10      5.37202
 C    23 -- C   478       -0.10      5.37202
 C    49 -- C   469       -0.10      5.37202
 C    48 -- C   468       -0.10      5.37202
 C    47 -- C   467       -0.10      5.37202
 C    22 -- C   477       -0.10      5.37202
 C    46 -- C   466       -0.10      5.37202
 C    21 -- C   476       -0.10      5.37202
 C    85 -- C   355       -0.10      5.37202
 C    84 -- C   354       -0.10      5.37202
 C    83 -- C   353       -0.10      5.37202
 C    82 -- C   352       -0.10      5.37202
 C    81 -- C   351       -0.10      5.37202
 C    55 -- C   385       -0.10      5.37202
 C    54 -- C   384       -0.10      5.37202
 C    25 -- C   480       -0.10      5.37202
 C    53 -- C   383       -0.10      5.37202
 C    52 -- C   382       -0.10      5.37202
 C    51 -- C   381       -0.10      5.37202
 C    24 -- C   479       -0.10      5.37202
 C    50 -- C   470       -0.10      5.37202
 C    24 -- C   449       -0.10      5.37202
 C     6 -- C   416       -0.10      5.37202
 C    23 -- C   448       -0.10      5.37202
 C    22 -- C   447       -0.10      5.37202
 C    10 -- C   470       -0.10      5.37202
 C     5 -- C   450       -0.10      5.37202
 C    21 -- C   446       -0.10      5.37202
 C    10 -- C   420       -0.10      5.37202
 C     9 -- C   469       -0.10      5.37202
 C     9 -- C   419       -0.10      5.37202
 C     8 -- C   468       -0.10      5.37202
 C     4 -- C   449       -0.10      5.37202
 C   150 -- C   440       -0.10      5.37202
 C   149 -- C   439       -0.10      5.37202
 C   148 -- C   438       -0.10      5.37202
 C   147 -- C   437       -0.10      5.37202
 C     8 -- C   418       -0.10      5.37202
 C   146 -- C   436       -0.10      5.37202
 C     2 -- C   447       -0.10      5.37202
 C   135 -- C   460       -0.10      5.37202
 C     7 -- C   467       -0.10      5.37202
 C   134 -- C   459       -0.10      5.37202
 C   133 -- C   458       -0.10      5.37202
 C   132 -- C   457       -0.10      5.37202
 C   131 -- C   456       -0.10      5.37202
 C     7 -- C   417       -0.10      5.37202
 C     1 -- C   446       -0.10      5.37202
 C     6 -- C   466       -0.10      5.37202
 C    25 -- C   450       -0.10      5.37202
 C     3 -- C   448       -0.10      5.37202
 C   106 -- C   436       -0.10      5.37202
 C   106 -- C   376       -0.10      5.37202
 C    80 -- C   410       -0.10      5.37202
 C    79 -- C   409       -0.10      5.37202
 C    78 -- C   408       -0.10      5.37202
 C    77 -- C   407       -0.10      5.37202
 C    76 -- C   406       -0.10      5.37202
 C   135 -- C   410       -0.10      5.37202
 C   134 -- C   409       -0.10      5.37202
 C   133 -- C   408       -0.10      5.37202
 C   132 -- C   407       -0.10      5.37202
 C   131 -- C   406       -0.10      5.37202
 C   110 -- C   440       -0.10      5.37202
 C   110 -- C   380       -0.10      5.37202
 C   109 -- C   439       -0.10      5.37202
 C   109 -- C   379       -0.10      5.37202
 C   108 -- C   438       -0.10      5.37202
 C   108 -- C   378       -0.10      5.37202
 C   107 -- C   437       -0.10      5.37202
 C   107 -- C   377       -0.10      5.37202
 C   215 -- C   635       -0.10      5.38000
 C   214 -- C   634       -0.10      5.38000
 C   213 -- C   633       -0.10      5.38000
 C   212 -- C   632       -0.10      5.38000
 C   211 -- C   631       -0.10      5.38000
 C   190 -- C   620       -0.10      5.38000
 C   189 -- C   619       -0.10      5.38000
 C   188 -- C   618       -0.10      5.38000
 C   187 -- C   617       -0.10      5.38000
 C   186 -- C   616       -0.10      5.38000
 C   175 -- C   595       -0.10      5.38000
 C   174 -- C   594       -0.10      5.38000
 C   173 -- C   593       -0.10      5.38000
 C   172 -- C   592       -0.10      5.38000
 C   171 -- C   591       -0.10      5.38000
 C   245 -- C   640       -0.10      5.38000
 C   244 -- C   639       -0.10      5.38000
 C   243 -- C   638       -0.10      5.38000
 C   242 -- C   637       -0.10      5.38000
 C   241 -- C   636       -0.10      5.38000
==================================================


=================== Orbital energy and occupancy information ===================

      Total number of orbitals:    2560
        Occupancy sum (kernel):    1279.999999999
   Occupancy sum (eigenvalues):    1279.999999999
                 HOMO-LUMO gap:       0.062870911 Eh
                 Mid-gap level:       0.267031564 Eh

                        Orbital | Energy (Eh) | Occupancy
                            1    -0.458922344   1.0000000
                        .......   ...........   .........
                         1271     0.229973558   0.9999884
                         1272     0.230003082   0.9999883
                         1273     0.230444798   0.9999866
                         1274     0.230474290   0.9999865
                         1275     0.234298647   0.9999548
                         1276     0.234302197   0.9999548
                         1277     0.234750019   0.9999479
                         1278     0.234753573   0.9999479
                         1279     0.235158506   0.9999408
                         1280     0.235596108   0.9999320
                        ....... -- gap at 0K -- .........
                         1281     0.298467019   0.0000351
                         1282     0.298478749   0.0000349
                         1283     0.298720517   0.0000324
                         1284     0.298732245   0.0000322
                         1285     0.299335124   0.0000268
                         1286     0.299337496   0.0000268
                         1287     0.299604560   0.0000246
                         1288     0.299606927   0.0000246
                         1289     0.299954445   0.0000221
                         1290     0.300229427   0.0000203
                        .......   ...........   .........
                         2560     1.158602862   0.0000000

================================================================================

===================== Writing canonical molecular orbitals =====================
| Orbital  Energy (eV)  Norm     |
| HOMO      6.41089631  1.000000 | Writing "3.3003376_GO_manual_4x64graphite_HOMO.cube" ... done
Writing "3.3003376_GO_manual_4x64graphite_HOMO.dx" ... done
| LUMO      8.12170086  1.000000 | Writing "3.3003376_GO_manual_4x64graphite_LUMO.cube" ... done
Writing "3.3003376_GO_manual_4x64graphite_LUMO.dx" ... done
================================================================================
 
===================== Density of States (DOS) calculation ======================
Writing "3.3003376_GO_manual_4x64graphite_DOS.txt" ...  done
================================================================================
 
Writing bands to file "3.3003376_GO_manual_4x64graphite.val_bands" ... done
 
================ Projected Density of States (pDOS) calculation ================
 
Constructing AM resolved functions  ...... done
Writing NGWF plot files in formats: CUBE DX ...  done
 
Performing overlap integrals ...  done
 
Computing pDOS weights ...  done
 
All bands spilling parameter =   3.85 %
Occupancy-weighted spilling parameter =   0.86 %
 
 => Outputting data for OptaDOS <=
 
Writing pDOS weights to file "3.3003376_GO_manual_4x64graphite.val_pdos_bin" ... done
 
Writing band gradients to file "3.3003376_GO_manual_4x64graphite.val_dome_bin" ... done
 
Writing Castep output cell file to "3.3003376_GO_manual_4x64graphite-out.cell" ... done
 
 => Computing Gaussian smeared pDOS <= 
Writing "3.3003376_GO_manual_4x64graphite_PDOS.txt" ...  done
 
 => Computing Occupancy-weighted Gaussian smeared pDOS <= 
Writing "3.3003376_GO_manual_4x64graphite_occ_PDOS.txt" ...  done
  => Band centres: 
 S band centre of group 1:  -13.852516 eV
 P band centre of group 1:   -6.742498 eV
  Band centres done. <=
  => Integrated number of electrons in each AM band: 
 S num electrons of group 1:  575.724422
 P num electrons of group 1: 1962.376144
  Integrated number of electrons done. <=
================================================================================

------------------------------ TIMING INFORMATION ------------------------------
AVERAGE TIME:    4204.895s on     40 node(s)                                    
TOTAL TIME:      4204.895s on     40 node(s)                                    
================= AVERAGE TIMINGS FROM ALL NODES (CUMULATIVE) ==================
|| TAG                                    #calls    cpu time   %total  Gflops ||
|| work_imbalance                       :     1        0.00s   0.000%  ------ ||
|| paw_tcore_hartree_on_grid            :     1        0.00s   0.000%  ------ ||
|| paw_tcore_density                    :     1        0.01s   0.000%  ------ ||
|| paw_sphere_density_on_grid           :     1        0.01s   0.000%  ------ ||
|| sparse_set_to_garbage                :   171        0.03s   0.001%  ------ ||
|| paw_dij_hartree                      :   383        0.05s   0.001%  ------ ||
|| pseudo_make_structure_factor         :     1        0.05s   0.001%  ------ ||
|| basis_extract_function_from_box      :  1920        0.08s   0.002%  ------ ||
|| paw_species_calc_proj_prec_mat       :     1        0.12s   0.003%  ------ ||
|| paw_dataset_init                     :     1        0.15s   0.004%  ------ ||
|| density_init_guess_real              :     1        0.18s   0.004%  ------ ||
|| ngwfs_initialise_from_radial         :     2        0.67s   0.016%  ------ ||
|| restart_kernel_write                 :    16        0.91s   0.022%  ------ ||
|| sparse_init                          :     1        0.99s   0.023%  ------ ||
|| dense_normal_eigensolve              :     1        1.00s   0.024%  ------ ||
|| hartree_on_grid                      :   287        1.41s   0.033%  ------ ||
|| ewald_calculate_energy               :     1        2.74s   0.065%  ------ ||
|| projectors_init_fftbox_recip         :   151        2.94s   0.070%  ------ ||
|| fourier_apply_box_pair               :  2848        4.71s   0.112% 561.335 ||
|| basis_copy_function_to_box           : 27008        5.85s   0.139%  ------ ||
|| augmentation_screen_dij              :   292        6.45s   0.153%  ------ ||
|| sw_init                              :     1        6.73s   0.160%  ------ ||
|| sparse_embed_hotelling_invert_embed  :    29        8.43s   0.200%  ------ ||
|| ngwf_gradient_coeffs                 :    15       11.94s   0.284%  ------ ||
|| cell_grid_extract_box_real           : 11404       15.53s   0.369%  ------ ||
|| fourier_apply_cell_backward          :  8868       18.39s   0.437%  55.636 ||
|| fourier_apply_cell_forward           :  8295       19.95s   0.474%  47.975 ||
|| sparse_trace                         :  3482       21.10s   0.502%  ------ ||
|| cell_grid_deposit_box_real           : 36912       21.78s   0.518%  ------ ||
|| paw_dij_xc                           :   383       25.42s   0.605%  ------ ||
|| aug_nonlocal_mat                     :   368       38.93s   0.926%  ------ ||
|| density_fftbox_deposit_to_cell       : 18368       43.23s   1.028%  ------ ||
|| hamiltonian_energy_components        :     3       49.95s   1.188%  ------ ||
|| eigenstates_pdos                     :     1       53.84s   1.280%  ------ ||
|| augmentation_density_on_grid         :   287       57.09s   1.358%  ------ ||
|| eigenstates_calculate                :     1       58.05s   1.381%  ------ ||
|| function_ops_brappd_ketppd           :    60       60.03s   1.428%  ------ ||
|| projectors_func_ovlp_box             :    30       71.98s   1.712%  ------ ||
|| nlxc_vdw_energy                      :   572       77.70s   1.848%  ------ ||
|| xc_energy_potential                  :   286       85.75s   2.039%  ------ ||
|| integrals_kinetic                    :    29      104.38s   2.482%  ------ ||
|| properties_calculate                 :     1      104.40s   2.483%  ------ ||
|| dense_eigensolve                     :   254      115.99s   2.758%  ------ ||
|| restart_ngwfs_tightbox_output        :    14      137.13s   3.261%  ------ ||
|| potential_apply_to_ngwf_batch        :   360      137.80s   3.277%  ------ ||
|| sparse_product                       :  3464      159.24s   3.787%  ------ ||
|| basis_dot_function_with_box          : 8.889M     241.43s   5.742%  ------ ||
|| fourier_apply_box                    : 84720      263.52s   6.267% 981.490 ||
|| edft_diag_ngwf_ham                   :   253      270.88s   6.442%  ------ ||
|| projectors_gradient_batch            :    60      281.38s   6.692%  ------ ||
|| integrals_locpot_mat_els_batch       :   360      331.70s   7.889%  ------ ||
|| density_fftbox_interpolate_multiply  : 18368      355.87s   8.463%  ------ ||
|| projectors_grad_precond_batch        :    60      414.31s   9.853%  ------ ||
|| density_batch_interp_deposit         :  1148      440.37s  10.473%  ------ ||
|| integrals_locpot_dbl_grid            :    90      471.34s  11.209%  ------ ||
|| edft_apply_smearing_operator         :   253      538.30s  12.802%  ------ ||
|| basis_add_function_to_box            : 25.23M     655.45s  15.588%  ------ ||
|| ngwf_gradient_build_batch            :    60      740.80s  17.618%  ------ ||
|| density_batch_row_sums               :  1148      941.89s  22.400%  ------ ||
|| ngwf_gradient_batch                  :    60      978.93s  23.281%  ------ ||
|| ngwf_gradient_lnv                    :    15     1010.02s  24.020%  ------ ||
|| density_on_dbl_grid                  :   287     1396.76s  33.217%  ------ ||
|| hamiltonian_lhxc_calculate           :   282     1517.24s  36.083%  ------ ||
|| edft_calculate                       :    15     2527.50s  60.108%  ------ ||
|| ngwf_cg_optimise                     :     1     4074.02s  96.888%  ------ ||
|| total_time                           :     1     4204.90s 100.000%  ------ ||
================================================================================
Overhead of generating timer report: 
- 0 ms averaging over threads,
- 5 ms ensuring consistency across MPI ranks,
- 0 ms printing in order.

Job completed: 24-02-2020 23:17 (-0000)

