 +---------------------------------------------------------------+
 |                                                               |
 |        ####### #     # ####### ####### ####### ######         |
 |        #     # ##    # #          #    #       #     #        |
 |        #     # # #   # #          #    #       #     #        |
 |        #     # #  #  # #####      #    #####   ######         |
 |        #     # #   # # #          #    #       #              |
 |        #     # #    ## #          #    #       #              |
 |        ####### #     # #######    #    ####### #              |
 |                                                               |
 |        Linear-Scaling Ab Initio Total Energy Program          |
 |                                                               |
 |          Release for academic collaborators of ODG            |
 |                                             Version 5.3.2.12  |
 |                                                               |
 +---------------------------------------------------------------+
 |                                                               |
 |  Authors:                                                     |
 |  Jacek Dziedzic, Peter D. Haynes, Nicholas D. M. Hine,        |
 |  Arash. A. Mostofi, Mike C. Payne and Chris-Kriton Skylaris   |
 |                                                               |
 |  Contributors:                                                |
 |  J. Aarons, L. Andrinopoulos, P. W. Avraam, R. A. Bell,       |
 |  A. Bhandari, G. A. Bramley, R. J. Charlton, S. J. Clark,     |
 |  R. J. Clements, G. C. Constantinescu, F. Corsetti,           |
 |  N. Corsini, O. Dieguez, S. M. M. Dubois, K. K. B. Duff,      |
 |  J. M. Escartin, A. Greco, H. Helal, Q. O. Hill, L. P. Lee,   |
 |  J.-H. Li, E. B. Linscott, G. Moynihan, D. D. O`Regan,        |
 |  O. K. Okan, M. J. S. Phipps, C. J. Pickard,                  |
 |  J. C. A. Prentice, M. I. J. Probert, L. E. Ratcliff,         |
 |  M. Robinson, A. Ruiz Serrano, J. S. Spencer, E. W. Tait,     |
 |  G. Teobaldi, D. Turban, V. Vitale, K. A. Wilkinson,          |
 |  C. Weber, J. C. Womack, N. Yeung and T. J. Zuehlsdorff       |
 |                                                               |
 |                                   Copyright (c) 2004-2020     |
 |                                                               |
 |  Please cite:                                                 |
 |  "Introducing ONETEP: Linear-scaling density functional       |
 |   simulations on parallel computers".                         |
 |   C.-K. Skylaris, P. D. Haynes, A. A. Mostofi, M. C. Payne.   |
 |   J. Chem. Phys. 122 084119 (2005).                           |
 |                                                               |
 |          in all publications arising from your use of ONETEP. |
 |                                                               |
 +---------------------------------------------------------------+
 |                                                               |
 |   ONETEP is based on developments described in the following  |
 |   publications:                                               |
 |                                                               |
 |  "Nonorthogonal generalized Wannier function pseudopotential  |
 |   plane-wave method".                                         |
 |   C.-K. Skylaris, A. A. Mostofi, P. D. Haynes, O. Dieguez,    |
 |   M. C. Payne.                                                |
 |   Phys. Rev. B 66 035119 (2002).                              |
 |                                                               |
 |  "Preconditioned iterative minimization for linear-scaling    |
 |   electronic structure calculations".                         |
 |   A. A. Mostofi, P. D. Haynes, C.-K. Skylaris, M. C. Payne.   |
 |   J. Chem. Phys. 119(17), pp.8842-8848 (2003).                |
 |                                                               |
 |  "Total-energy calculations on a real space grid with         |
 |   localized functions and a plane-wave basis".                |
 |   A. A. Mostofi, C.-K. Skylaris, P. D. Haynes, M. C. Payne.   |
 |   Comput. Phys. Commun. 147, pp.788-802 (2002).               |
 |                                                               |
 |  "Accurate kinetic energy evaluation in electronic structure  |
 |   calculations with localized functions on real space grids"  |
 |   C.-K. Skylaris, A. A. Mostofi, P. D. Haynes, C. J. Pickard, |
 |   M. C. Payne.                                                |
 |   Comput. Phys. Commun. 140, pp.315-322 (2001).               |
 |                                                               |
 |  "Accurate ionic forces and geometry optimization in linear-  |
 |   scaling density-functional theory with local orbitals"      |
 |   N. D. M. Hine, M. Robinson, P. D. Haynes, C.-K. Skylaris,   |
 |   M. C. Payne, and A. A. Mostofi.                             |
 |   Phys. Rev. B 83 195102 (2011).                              |
 |                                                               |
 +---------------------------------------------------------------+

Job started: 24-02-2020 22:14 (-0000)
 
Reading parameters from file "3.3808312_GO_manual_4x64graphite.dat" ...

WARNING: "cutoff_energy" not specified, but "psinc_spacing" specified.
         Using the latter to set the KE cutoff energy to  732.32021eV,
         thus *overriding* the default.

... done

If your calculation crashes here, before "Checking processes and threads..."
is displayed, then your stack size is insufficient.
If so, use "ulimit -s unlimited" at runtime.
You can disable this check with "check_stack_size F".

Checking processes and threads...
   Determining the default number of threads...
      No default threads set at compilation time: defaulting to 1.
      OpenMP library call suggests 4 threads.
      Hybrid MPI-OpenMP compilation detected.
      Number of MPI processes > 1.
      OMP_NUM_THREADS environment variable present and
      its value matches the one obtained from the OpenMP library call.
      Using this value as default.
      Default threads: 4
      Default applies to threads_max and threads_num_fftboxes.
      Settings in the input file override this default.
   ... done

   Running with 40 MPI processes.
   There are 10 MPI processes running on the same node as the root process.
   Each MPI process is using: 
               1 threads for simulation cell FFTs.
               1 threads for parallel FFT box operations.
               4 threads for loops over batched FFT box operations.
               4 threads in other parallel regions.
... done

Basic input checks...
Resetting ngwf_cg_rotate to TRUE for EDFT calculations
... done

Reading geometry and species blocks from file "3.3808312_GO_manual_4x64graphite.dat" ...
    
  PSINC grid spacing along a1 set to   0.511215680000a0 from input file.
  PSINC grid spacing along a2 set to   0.531284090000a0 from input file.
  PSINC grid spacing along a3 set to   0.507052230000a0 from input file.
  Number of PPD points along a3 set to 1.  This is 
  the default value, it may have been provided also in the input file.
... done
 Writing xyz coordinates to file "3.3808312_GO_manual_4x64graphite.xyz" ... done


--------------------------------------------------------------------------------
---------------------------------- INPUT FILE ----------------------------------
--------------------------------------------------------------------------------

task : singlepoint                                                              
do_properties : true                                                            
dx_format T                                                                     
edft T                                                                          
output_detail VERBOSE                                                           
write_xyz T                                                                     
xc_functional OPTPBE                                                            
PSINC_SPACING 0.51121568 0.53128409 0.50705223                                  
paw T                                                                           
pdos_max_l = 2                                                                  
dos_smear  0.1 eV                                                               
popn_calculate T                                                                
PDOS_PSEUDOATOMIC T                                                             
PDOS_REDUCE_SWS F                                                               
PDOS_CONSTRUCT_BASIS F                                                          
PDOS_LOWDIN T                                                                   
PDOS_ORTH_ATOM_BLOCKS F                                                         
PDOS_LCAO_OPTIMIZE F                                                            
pdos_optados_output T                                                           
homo_plot 0                                                                     
lumo_plot 0                                                                     
homo_dens_plot -1                                                               
lumo_dens_plot -1                                                               
%BLOCK SPECIES                                                                  
C C 6 4 9.0                                                                     
%ENDBLOCK SPECIES                                                               
%BLOCK SPECIES_POT                                                              
C "~/pp/paw/c_pbe_abinit.paw"                                                   
%ENDBLOCK SPECIES_POT                                                           
%BLOCK SPECIES_ATOMIC_SET                                                       
C "SOLVE conf=2s2 2p2"                                                          
%ENDBLOCK SPECIES_ATOMIC_SET                                                    
%BLOCK LATTICE_CART                                                             
32.21  0.00  0.00                                                               
0.00 18.59  0.00                                                                
0.00  0.00 63.89                                                                
%ENDBLOCK LATTICE_CART                                                          
%BLOCK POSITIONS_ABS                                                            
C  0.00  0.00  3.19                                                             
C  0.00  0.00 15.97                                                             
C  0.00  0.00 28.75                                                             
C  0.00  0.00 41.53                                                             
C  0.00  0.00 54.31                                                             
C  0.00  4.65  3.19                                                             
C  0.00  4.65 15.97                                                             
C  0.00  4.65 28.75                                                             
C  0.00  4.65 41.53                                                             
C  0.00  4.65 54.31                                                             
C  4.03  2.32  3.19                                                             
C  4.03  2.32 15.97                                                             
C  4.03  2.32 28.75                                                             
C  4.03  2.32 41.53                                                             
C  4.03  2.32 54.31                                                             
C  8.05  0.00  3.19                                                             
C  8.05  0.00 15.97                                                             
C  8.05  0.00 28.75                                                             
C  8.05  0.00 41.53                                                             
C  8.05  0.00 54.31                                                             
C  0.00  9.30  3.19                                                             
C  0.00  9.30 15.97                                                             
C  0.00  9.30 28.75                                                             
C  0.00  9.30 41.53                                                             
C  0.00  9.30 54.31                                                             
C  4.03  6.97  3.19                                                             
C  4.03  6.97 15.97                                                             
C  4.03  6.97 28.75                                                             
C  4.03  6.97 41.53                                                             
C  4.03  6.97 54.31                                                             
C  8.05  4.65  3.19                                                             
C  8.05  4.65 15.97                                                             
C  8.05  4.65 28.75                                                             
C  8.05  4.65 41.53                                                             
C  8.05  4.65 54.31                                                             
C 12.08  2.32  3.19                                                             
C 12.08  2.32 15.97                                                             
C 12.08  2.32 28.75                                                             
C 12.08  2.32 41.53                                                             
C 12.08  2.32 54.31                                                             
C 16.10  0.00  3.19                                                             
C 16.10  0.00 15.97                                                             
C 16.10  0.00 28.75                                                             
C 16.10  0.00 41.53                                                             
C 16.10  0.00 54.31                                                             
C  0.00 13.95  3.19                                                             
C  0.00 13.95 15.97                                                             
C  0.00 13.95 28.75                                                             
C  0.00 13.95 41.53                                                             
C  0.00 13.95 54.31                                                             
C  4.03 11.62  3.19                                                             
C  4.03 11.62 15.97                                                             
C  4.03 11.62 28.75                                                             
C  4.03 11.62 41.53                                                             
C  4.03 11.62 54.31                                                             
C  8.05  9.30  3.19                                                             
C  8.05  9.30 15.97                                                             
C  8.05  9.30 28.75                                                             
C  8.05  9.30 41.53                                                             
C  8.05  9.30 54.31                                                             
C 12.08  6.97  3.19                                                             
C 12.08  6.97 15.97                                                             
C 12.08  6.97 28.75                                                             
C 12.08  6.97 41.53                                                             
C 12.08  6.97 54.31                                                             
C 16.10  4.65  3.19                                                             
C 16.10  4.65 15.97                                                             
C 16.10  4.65 28.75                                                             
C 16.10  4.65 41.53                                                             
C 16.10  4.65 54.31                                                             
C 20.13  2.32  3.19                                                             
C 20.13  2.32 15.97                                                             
C 20.13  2.32 28.75                                                             
C 20.13  2.32 41.53                                                             
C 20.13  2.32 54.31                                                             
C 24.16  0.00  3.19                                                             
C 24.16  0.00 15.97                                                             
C 24.16  0.00 28.75                                                             
C 24.16  0.00 41.53                                                             
C 24.16  0.00 54.31                                                             
C  4.03 16.27  3.19                                                             
C  4.03 16.27 15.97                                                             
C  4.03 16.27 28.75                                                             
C  4.03 16.27 41.53                                                             
C  4.03 16.27 54.31                                                             
C  8.05 13.95  3.19                                                             
C  8.05 13.95 15.97                                                             
C  8.05 13.95 28.75                                                             
C  8.05 13.95 41.53                                                             
C  8.05 13.95 54.31                                                             
C 12.08 11.62  3.19                                                             
C 12.08 11.62 15.97                                                             
C 12.08 11.62 28.75                                                             
C 12.08 11.62 41.53                                                             
C 12.08 11.62 54.31                                                             
C 16.10  9.30  3.19                                                             
C 16.10  9.30 15.97                                                             
C 16.10  9.30 28.75                                                             
C 16.10  9.30 41.53                                                             
C 16.10  9.30 54.31                                                             
C 20.13  6.97  3.19                                                             
C 20.13  6.97 15.97                                                             
C 20.13  6.97 28.75                                                             
C 20.13  6.97 41.53                                                             
C 20.13  6.97 54.31                                                             
C 24.16  4.65  3.19                                                             
C 24.16  4.65 15.97                                                             
C 24.16  4.65 28.75                                                             
C 24.16  4.65 41.53                                                             
C 24.16  4.65 54.31                                                             
C 28.18  2.32  3.19                                                             
C 28.18  2.32 15.97                                                             
C 28.18  2.32 28.75                                                             
C 28.18  2.32 41.53                                                             
C 28.18  2.32 54.31                                                             
C 12.08 16.27  3.19                                                             
C 12.08 16.27 15.97                                                             
C 12.08 16.27 28.75                                                             
C 12.08 16.27 41.53                                                             
C 12.08 16.27 54.31                                                             
C 16.10 13.95  3.19                                                             
C 16.10 13.95 15.97                                                             
C 16.10 13.95 28.75                                                             
C 16.10 13.95 41.53                                                             
C 16.10 13.95 54.31                                                             
C 20.13 11.62  3.19                                                             
C 20.13 11.62 15.97                                                             
C 20.13 11.62 28.75                                                             
C 20.13 11.62 41.53                                                             
C 20.13 11.62 54.31                                                             
C 24.16  9.30  3.19                                                             
C 24.16  9.30 15.97                                                             
C 24.16  9.30 28.75                                                             
C 24.16  9.30 41.53                                                             
C 24.16  9.30 54.31                                                             
C 28.18  6.97  3.19                                                             
C 28.18  6.97 15.97                                                             
C 28.18  6.97 28.75                                                             
C 28.18  6.97 41.53                                                             
C 28.18  6.97 54.31                                                             
C 20.13 16.27  3.19                                                             
C 20.13 16.27 15.97                                                             
C 20.13 16.27 28.75                                                             
C 20.13 16.27 41.53                                                             
C 20.13 16.27 54.31                                                             
C 24.16 13.95  3.19                                                             
C 24.16 13.95 15.97                                                             
C 24.16 13.95 28.75                                                             
C 24.16 13.95 41.53                                                             
C 24.16 13.95 54.31                                                             
C 28.18 11.62  3.19                                                             
C 28.18 11.62 15.97                                                             
C 28.18 11.62 28.75                                                             
C 28.18 11.62 41.53                                                             
C 28.18 11.62 54.31                                                             
C 28.18 16.27  3.19                                                             
C 28.18 16.27 15.97                                                             
C 28.18 16.27 28.75                                                             
C 28.18 16.27 41.53                                                             
C 28.18 16.27 54.31                                                             
C  0.00  0.00  9.58                                                             
C  0.00  0.00 22.36                                                             
C  0.00  0.00 35.14                                                             
C  0.00  0.00 47.92                                                             
C  0.00  0.00 60.69                                                             
C  0.00  4.65  9.58                                                             
C  0.00  4.65 22.36                                                             
C  0.00  4.65 35.14                                                             
C  0.00  4.65 47.92                                                             
C  0.00  4.65 60.69                                                             
C  4.03  2.32  9.58                                                             
C  4.03  2.32 22.36                                                             
C  4.03  2.32 35.14                                                             
C  4.03  2.32 47.92                                                             
C  4.03  2.32 60.69                                                             
C  8.05  0.00  9.58                                                             
C  8.05  0.00 22.36                                                             
C  8.05  0.00 35.14                                                             
C  8.05  0.00 47.92                                                             
C  8.05  0.00 60.69                                                             
C  0.00  9.30  9.58                                                             
C  0.00  9.30 22.36                                                             
C  0.00  9.30 35.14                                                             
C  0.00  9.30 47.92                                                             
C  0.00  9.30 60.69                                                             
C  4.03  6.97  9.58                                                             
C  4.03  6.97 22.36                                                             
C  4.03  6.97 35.14                                                             
C  4.03  6.97 47.92                                                             
C  4.03  6.97 60.69                                                             
C  8.05  4.65  9.58                                                             
C  8.05  4.65 22.36                                                             
C  8.05  4.65 35.14                                                             
C  8.05  4.65 47.92                                                             
C  8.05  4.65 60.69                                                             
C 12.08  2.32  9.58                                                             
C 12.08  2.32 22.36                                                             
C 12.08  2.32 35.14                                                             
C 12.08  2.32 47.92                                                             
C 12.08  2.32 60.69                                                             
C 16.10  0.00  9.58                                                             
C 16.10  0.00 22.36                                                             
C 16.10  0.00 35.14                                                             
C 16.10  0.00 47.92                                                             
C 16.10  0.00 60.69                                                             
C  0.00 13.95  9.58                                                             
C  0.00 13.95 22.36                                                             
C  0.00 13.95 35.14                                                             
C  0.00 13.95 47.92                                                             
C  0.00 13.95 60.69                                                             
C  4.03 11.62  9.58                                                             
C  4.03 11.62 22.36                                                             
C  4.03 11.62 35.14                                                             
C  4.03 11.62 47.92                                                             
C  4.03 11.62 60.69                                                             
C  8.05  9.30  9.58                                                             
C  8.05  9.30 22.36                                                             
C  8.05  9.30 35.14                                                             
C  8.05  9.30 47.92                                                             
C  8.05  9.30 60.69                                                             
C 12.08  6.97  9.58                                                             
C 12.08  6.97 22.36                                                             
C 12.08  6.97 35.14                                                             
C 12.08  6.97 47.92                                                             
C 12.08  6.97 60.69                                                             
C 16.10  4.65  9.58                                                             
C 16.10  4.65 22.36                                                             
C 16.10  4.65 35.14                                                             
C 16.10  4.65 47.92                                                             
C 16.10  4.65 60.69                                                             
C 20.13  2.32  9.58                                                             
C 20.13  2.32 22.36                                                             
C 20.13  2.32 35.14                                                             
C 20.13  2.32 47.92                                                             
C 20.13  2.32 60.69                                                             
C 24.16  0.00  9.58                                                             
C 24.16  0.00 22.36                                                             
C 24.16  0.00 35.14                                                             
C 24.16  0.00 47.92                                                             
C 24.16  0.00 60.69                                                             
C  4.03 16.27  9.58                                                             
C  4.03 16.27 22.36                                                             
C  4.03 16.27 35.14                                                             
C  4.03 16.27 47.92                                                             
C  4.03 16.27 60.69                                                             
C  8.05 13.95  9.58                                                             
C  8.05 13.95 22.36                                                             
C  8.05 13.95 35.14                                                             
C  8.05 13.95 47.92                                                             
C  8.05 13.95 60.69                                                             
C 12.08 11.62  9.58                                                             
C 12.08 11.62 22.36                                                             
C 12.08 11.62 35.14                                                             
C 12.08 11.62 47.92                                                             
C 12.08 11.62 60.69                                                             
C 16.10  9.30  9.58                                                             
C 16.10  9.30 22.36                                                             
C 16.10  9.30 35.14                                                             
C 16.10  9.30 47.92                                                             
C 16.10  9.30 60.69                                                             
C 20.13  6.97  9.58                                                             
C 20.13  6.97 22.36                                                             
C 20.13  6.97 35.14                                                             
C 20.13  6.97 47.92                                                             
C 20.13  6.97 60.69                                                             
C 24.16  4.65  9.58                                                             
C 24.16  4.65 22.36                                                             
C 24.16  4.65 35.14                                                             
C 24.16  4.65 47.92                                                             
C 24.16  4.65 60.69                                                             
C 28.18  2.32  9.58                                                             
C 28.18  2.32 22.36                                                             
C 28.18  2.32 35.14                                                             
C 28.18  2.32 47.92                                                             
C 28.18  2.32 60.69                                                             
C 12.08 16.27  9.58                                                             
C 12.08 16.27 22.36                                                             
C 12.08 16.27 35.14                                                             
C 12.08 16.27 47.92                                                             
C 12.08 16.27 60.69                                                             
C 16.10 13.95  9.58                                                             
C 16.10 13.95 22.36                                                             
C 16.10 13.95 35.14                                                             
C 16.10 13.95 47.92                                                             
C 16.10 13.95 60.69                                                             
C 20.13 11.62  9.58                                                             
C 20.13 11.62 22.36                                                             
C 20.13 11.62 35.14                                                             
C 20.13 11.62 47.92                                                             
C 20.13 11.62 60.69                                                             
C 24.16  9.30  9.58                                                             
C 24.16  9.30 22.36                                                             
C 24.16  9.30 35.14                                                             
C 24.16  9.30 47.92                                                             
C 24.16  9.30 60.69                                                             
C 28.18  6.97  9.58                                                             
C 28.18  6.97 22.36                                                             
C 28.18  6.97 35.14                                                             
C 28.18  6.97 47.92                                                             
C 28.18  6.97 60.69                                                             
C 20.13 16.27  9.58                                                             
C 20.13 16.27 22.36                                                             
C 20.13 16.27 35.14                                                             
C 20.13 16.27 47.92                                                             
C 20.13 16.27 60.69                                                             
C 24.16 13.95  9.58                                                             
C 24.16 13.95 22.36                                                             
C 24.16 13.95 35.14                                                             
C 24.16 13.95 47.92                                                             
C 24.16 13.95 60.69                                                             
C 28.18 11.62  9.58                                                             
C 28.18 11.62 22.36                                                             
C 28.18 11.62 35.14                                                             
C 28.18 11.62 47.92                                                             
C 28.18 11.62 60.69                                                             
C 28.18 16.27  9.58                                                             
C 28.18 16.27 22.36                                                             
C 28.18 16.27 35.14                                                             
C 28.18 16.27 47.92                                                             
C 28.18 16.27 60.69                                                             
C  1.34  2.32  3.19                                                             
C  1.34  2.32 15.97                                                             
C  1.34  2.32 28.75                                                             
C  1.34  2.32 41.53                                                             
C  1.34  2.32 54.31                                                             
C  5.37  0.00  3.19                                                             
C  5.37  0.00 15.97                                                             
C  5.37  0.00 28.75                                                             
C  5.37  0.00 41.53                                                             
C  5.37  0.00 54.31                                                             
C  1.34  6.97  3.19                                                             
C  1.34  6.97 15.97                                                             
C  1.34  6.97 28.75                                                             
C  1.34  6.97 41.53                                                             
C  1.34  6.97 54.31                                                             
C  5.37  4.65  3.19                                                             
C  5.37  4.65 15.97                                                             
C  5.37  4.65 28.75                                                             
C  5.37  4.65 41.53                                                             
C  5.37  4.65 54.31                                                             
C  9.39  2.32  3.19                                                             
C  9.39  2.32 15.97                                                             
C  9.39  2.32 28.75                                                             
C  9.39  2.32 41.53                                                             
C  9.39  2.32 54.31                                                             
C 13.42  0.00  3.19                                                             
C 13.42  0.00 15.97                                                             
C 13.42  0.00 28.75                                                             
C 13.42  0.00 41.53                                                             
C 13.42  0.00 54.31                                                             
C  1.34 11.62  3.19                                                             
C  1.34 11.62 15.97                                                             
C  1.34 11.62 28.75                                                             
C  1.34 11.62 41.53                                                             
C  1.34 11.62 54.31                                                             
C  5.37  9.30  3.19                                                             
C  5.37  9.30 15.97                                                             
C  5.37  9.30 28.75                                                             
C  5.37  9.30 41.53                                                             
C  5.37  9.30 54.31                                                             
C  9.39  6.97  3.19                                                             
C  9.39  6.97 15.97                                                             
C  9.39  6.97 28.75                                                             
C  9.39  6.97 41.53                                                             
C  9.39  6.97 54.31                                                             
C 13.42  4.65  3.19                                                             
C 13.42  4.65 15.97                                                             
C 13.42  4.65 28.75                                                             
C 13.42  4.65 41.53                                                             
C 13.42  4.65 54.31                                                             
C 17.45  2.32  3.19                                                             
C 17.45  2.32 15.97                                                             
C 17.45  2.32 28.75                                                             
C 17.45  2.32 41.53                                                             
C 17.45  2.32 54.31                                                             
C 21.47  0.00  3.19                                                             
C 21.47  0.00 15.97                                                             
C 21.47  0.00 28.75                                                             
C 21.47  0.00 41.53                                                             
C 21.47  0.00 54.31                                                             
C  1.34 16.27  3.19                                                             
C  1.34 16.27 15.97                                                             
C  1.34 16.27 28.75                                                             
C  1.34 16.27 41.53                                                             
C  1.34 16.27 54.31                                                             
C  5.37 13.95  3.19                                                             
C  5.37 13.95 15.97                                                             
C  5.37 13.95 28.75                                                             
C  5.37 13.95 41.53                                                             
C  5.37 13.95 54.31                                                             
C  9.39 11.62  3.19                                                             
C  9.39 11.62 15.97                                                             
C  9.39 11.62 28.75                                                             
C  9.39 11.62 41.53                                                             
C  9.39 11.62 54.31                                                             
C 13.42  9.30  3.19                                                             
C 13.42  9.30 15.97                                                             
C 13.42  9.30 28.75                                                             
C 13.42  9.30 41.53                                                             
C 13.42  9.30 54.31                                                             
C 17.45  6.97  3.19                                                             
C 17.45  6.97 15.97                                                             
C 17.45  6.97 28.75                                                             
C 17.45  6.97 41.53                                                             
C 17.45  6.97 54.31                                                             
C 21.47  4.65  3.19                                                             
C 21.47  4.65 15.97                                                             
C 21.47  4.65 28.75                                                             
C 21.47  4.65 41.53                                                             
C 21.47  4.65 54.31                                                             
C 25.50  2.32  3.19                                                             
C 25.50  2.32 15.97                                                             
C 25.50  2.32 28.75                                                             
C 25.50  2.32 41.53                                                             
C 25.50  2.32 54.31                                                             
C 29.52  0.00  3.19                                                             
C 29.52  0.00 15.97                                                             
C 29.52  0.00 28.75                                                             
C 29.52  0.00 41.53                                                             
C 29.52  0.00 54.31                                                             
C  9.39 16.27  3.19                                                             
C  9.39 16.27 15.97                                                             
C  9.39 16.27 28.75                                                             
C  9.39 16.27 41.53                                                             
C  9.39 16.27 54.31                                                             
C 13.42 13.95  3.19                                                             
C 13.42 13.95 15.97                                                             
C 13.42 13.95 28.75                                                             
C 13.42 13.95 41.53                                                             
C 13.42 13.95 54.31                                                             
C 17.45 11.62  3.19                                                             
C 17.45 11.62 15.97                                                             
C 17.45 11.62 28.75                                                             
C 17.45 11.62 41.53                                                             
C 17.45 11.62 54.31                                                             
C 21.47  9.30  3.19                                                             
C 21.47  9.30 15.97                                                             
C 21.47  9.30 28.75                                                             
C 21.47  9.30 41.53                                                             
C 21.47  9.30 54.31                                                             
C 25.50  6.97  3.19                                                             
C 25.50  6.97 15.97                                                             
C 25.50  6.97 28.75                                                             
C 25.50  6.97 41.53                                                             
C 25.50  6.97 54.31                                                             
C 29.52  4.65  3.19                                                             
C 29.52  4.65 15.97                                                             
C 29.52  4.65 28.75                                                             
C 29.52  4.65 41.53                                                             
C 29.52  4.65 54.31                                                             
C 17.45 16.27  3.19                                                             
C 17.45 16.27 15.97                                                             
C 17.45 16.27 28.75                                                             
C 17.45 16.27 41.53                                                             
C 17.45 16.27 54.31                                                             
C 21.47 13.95  3.19                                                             
C 21.47 13.95 15.97                                                             
C 21.47 13.95 28.75                                                             
C 21.47 13.95 41.53                                                             
C 21.47 13.95 54.31                                                             
C 25.50 11.62  3.19                                                             
C 25.50 11.62 15.97                                                             
C 25.50 11.62 28.75                                                             
C 25.50 11.62 41.53                                                             
C 25.50 11.62 54.31                                                             
C 29.52  9.30  3.19                                                             
C 29.52  9.30 15.97                                                             
C 29.52  9.30 28.75                                                             
C 29.52  9.30 41.53                                                             
C 29.52  9.30 54.31                                                             
C 25.50 16.27  3.19                                                             
C 25.50 16.27 15.97                                                             
C 25.50 16.27 28.75                                                             
C 25.50 16.27 41.53                                                             
C 25.50 16.27 54.31                                                             
C 29.52 13.95  3.19                                                             
C 29.52 13.95 15.97                                                             
C 29.52 13.95 28.75                                                             
C 29.52 13.95 41.53                                                             
C 29.52 13.95 54.31                                                             
C  2.68  0.00  9.58                                                             
C  2.68  0.00 22.36                                                             
C  2.68  0.00 35.14                                                             
C  2.68  0.00 47.92                                                             
C  2.68  0.00 60.69                                                             
C  2.68  4.65  9.58                                                             
C  2.68  4.65 22.36                                                             
C  2.68  4.65 35.14                                                             
C  2.68  4.65 47.92                                                             
C  2.68  4.65 60.69                                                             
C  6.71  2.32  9.58                                                             
C  6.71  2.32 22.36                                                             
C  6.71  2.32 35.14                                                             
C  6.71  2.32 47.92                                                             
C  6.71  2.32 60.69                                                             
C 10.74  0.00  9.58                                                             
C 10.74  0.00 22.36                                                             
C 10.74  0.00 35.14                                                             
C 10.74  0.00 47.92                                                             
C 10.74  0.00 60.69                                                             
C  2.68  9.30  9.58                                                             
C  2.68  9.30 22.36                                                             
C  2.68  9.30 35.14                                                             
C  2.68  9.30 47.92                                                             
C  2.68  9.30 60.69                                                             
C  6.71  6.97  9.58                                                             
C  6.71  6.97 22.36                                                             
C  6.71  6.97 35.14                                                             
C  6.71  6.97 47.92                                                             
C  6.71  6.97 60.69                                                             
C 10.74  4.65  9.58                                                             
C 10.74  4.65 22.36                                                             
C 10.74  4.65 35.14                                                             
C 10.74  4.65 47.92                                                             
C 10.74  4.65 60.69                                                             
C 14.76  2.32  9.58                                                             
C 14.76  2.32 22.36                                                             
C 14.76  2.32 35.14                                                             
C 14.76  2.32 47.92                                                             
C 14.76  2.32 60.69                                                             
C 18.79  0.00  9.58                                                             
C 18.79  0.00 22.36                                                             
C 18.79  0.00 35.14                                                             
C 18.79  0.00 47.92                                                             
C 18.79  0.00 60.69                                                             
C  2.68 13.95  9.58                                                             
C  2.68 13.95 22.36                                                             
C  2.68 13.95 35.14                                                             
C  2.68 13.95 47.92                                                             
C  2.68 13.95 60.69                                                             
C  6.71 11.62  9.58                                                             
C  6.71 11.62 22.36                                                             
C  6.71 11.62 35.14                                                             
C  6.71 11.62 47.92                                                             
C  6.71 11.62 60.69                                                             
C 10.74  9.30  9.58                                                             
C 10.74  9.30 22.36                                                             
C 10.74  9.30 35.14                                                             
C 10.74  9.30 47.92                                                             
C 10.74  9.30 60.69                                                             
C 14.76  6.97  9.58                                                             
C 14.76  6.97 22.36                                                             
C 14.76  6.97 35.14                                                             
C 14.76  6.97 47.92                                                             
C 14.76  6.97 60.69                                                             
C 18.79  4.65  9.58                                                             
C 18.79  4.65 22.36                                                             
C 18.79  4.65 35.14                                                             
C 18.79  4.65 47.92                                                             
C 18.79  4.65 60.69                                                             
C 22.81  2.32  9.58                                                             
C 22.81  2.32 22.36                                                             
C 22.81  2.32 35.14                                                             
C 22.81  2.32 47.92                                                             
C 22.81  2.32 60.69                                                             
C 26.84  0.00  9.58                                                             
C 26.84  0.00 22.36                                                             
C 26.84  0.00 35.14                                                             
C 26.84  0.00 47.92                                                             
C 26.84  0.00 60.69                                                             
C  6.71 16.27  9.58                                                             
C  6.71 16.27 22.36                                                             
C  6.71 16.27 35.14                                                             
C  6.71 16.27 47.92                                                             
C  6.71 16.27 60.69                                                             
C 10.74 13.95  9.58                                                             
C 10.74 13.95 22.36                                                             
C 10.74 13.95 35.14                                                             
C 10.74 13.95 47.92                                                             
C 10.74 13.95 60.69                                                             
C 14.76 11.62  9.58                                                             
C 14.76 11.62 22.36                                                             
C 14.76 11.62 35.14                                                             
C 14.76 11.62 47.92                                                             
C 14.76 11.62 60.69                                                             
C 18.79  9.30  9.58                                                             
C 18.79  9.30 22.36                                                             
C 18.79  9.30 35.14                                                             
C 18.79  9.30 47.92                                                             
C 18.79  9.30 60.69                                                             
C 22.81  6.97  9.58                                                             
C 22.81  6.97 22.36                                                             
C 22.81  6.97 35.14                                                             
C 22.81  6.97 47.92                                                             
C 22.81  6.97 60.69                                                             
C 26.84  4.65  9.58                                                             
C 26.84  4.65 22.36                                                             
C 26.84  4.65 35.14                                                             
C 26.84  4.65 47.92                                                             
C 26.84  4.65 60.69                                                             
C 30.86  2.32  9.58                                                             
C 30.86  2.32 22.36                                                             
C 30.86  2.32 35.14                                                             
C 30.86  2.32 47.92                                                             
C 30.86  2.32 60.69                                                             
C 14.76 16.27  9.58                                                             
C 14.76 16.27 22.36                                                             
C 14.76 16.27 35.14                                                             
C 14.76 16.27 47.92                                                             
C 14.76 16.27 60.69                                                             
C 18.79 13.95  9.58                                                             
C 18.79 13.95 22.36                                                             
C 18.79 13.95 35.14                                                             
C 18.79 13.95 47.92                                                             
C 18.79 13.95 60.69                                                             
C 22.81 11.62  9.58                                                             
C 22.81 11.62 22.36                                                             
C 22.81 11.62 35.14                                                             
C 22.81 11.62 47.92                                                             
C 22.81 11.62 60.69                                                             
C 26.84  9.30  9.58                                                             
C 26.84  9.30 22.36                                                             
C 26.84  9.30 35.14                                                             
C 26.84  9.30 47.92                                                             
C 26.84  9.30 60.69                                                             
C 30.86  6.97  9.58                                                             
C 30.86  6.97 22.36                                                             
C 30.86  6.97 35.14                                                             
C 30.86  6.97 47.92                                                             
C 30.86  6.97 60.69                                                             
C 22.81 16.27  9.58                                                             
C 22.81 16.27 22.36                                                             
C 22.81 16.27 35.14                                                             
C 22.81 16.27 47.92                                                             
C 22.81 16.27 60.69                                                             
C 26.84 13.95  9.58                                                             
C 26.84 13.95 22.36                                                             
C 26.84 13.95 35.14                                                             
C 26.84 13.95 47.92                                                             
C 26.84 13.95 60.69                                                             
C 30.86 11.62  9.58                                                             
C 30.86 11.62 22.36                                                             
C 30.86 11.62 35.14                                                             
C 30.86 11.62 47.92                                                             
C 30.86 11.62 60.69                                                             
C 30.86 16.27  9.58                                                             
C 30.86 16.27 22.36                                                             
C 30.86 16.27 35.14                                                             
C 30.86 16.27 47.92                                                             
C 30.86 16.27 60.69                                                             
%ENDBLOCK POSITIONS_ABS                                                         

--------------------------------------------------------------------------------
-------------------------------- END INPUT FILE --------------------------------
--------------------------------------------------------------------------------


 
<<<<<<<<<<<<<<<<<<<<<<<<<<<<<<<<< Full system >>>>>>>>>>>>>>>>>>>>>>>>>>>>>>>>>>
<<<<<<<<<<<<<<<<<<<<<<<<<<< PAW Dataset information >>>>>>>>>>>>>>>>>>>>>>>>>>>
File: ~/pp/paw/c_pbe_abinit.paw; rc = 1.25 bohr; shape type =  3; rshape = 1.25 bohr;
  Atomic number:  6;  ionic charge:  4.000000
    Partial Wave 1: l = 0
    Partial Wave 2: l = 0
    Partial Wave 3: l = 1
    Partial Wave 4: l = 1
  Core charge supplied for Nonlinear Core Corrections
<<<<<<<<<<<<<<<<<<<<<<<<<<<<<<<<<<<<<<< >>>>>>>>>>>>>>>>>>>>>>>>>>>>>>>>>>>>>>>

-------------------------- Atom counting information ---------------------------
Symbol    Natoms    Nngwfs    Nprojs
  C        640      2560      5120
.......   ......    ......    ......
Totals:    640      2560      5120
--------------------------------------------------------------------------------

=============================== PSINC grid sizes ===============================
                      Simulation cell:   63 x  35 x 126
                              FFT-box:   63 x  35 x 117
                                  PPD:    7 x   5 x   1
Grid space d1=  0.511269841270a0 (KE cutoff=  29.06054Eh = 790.77748eV)
Grid space d2=  0.531142857143a0 (KE cutoff=  26.92659Eh = 732.70972eV)
Grid space d3=  0.507063492063a0 (KE cutoff=  29.54468Eh = 803.95170eV)
================================================================================
  
WARNING in cell_grid_distribute:
Average of less than one 23-slab per node, so workload cannot be
equally balanced between nodes.

********************* Fourier parallelisation information **********************
       Coarse grid (whole simulation cell) dimensions:     63    35   126
          Real-space ('12') slabs/node (min max mean):      3     4     3
         Recip-space ('23') slabs/node (min max mean):      0     1     0
********************************************************************************

********************* Fourier parallelisation information **********************
       Double grid (whole simulation cell) dimensions:    126    70   252
          Real-space ('12') slabs/node (min max mean):      6     7     6
         Recip-space ('23') slabs/node (min max mean):      1     2     1
********************************************************************************

Atom SCF Calculation for C  : Z (AE atom) =   6 : Z (PS atom) =   4
Config String: 2s2 2p2
Orbitals (num,occ):  2     2.00 2.00
Orbitals   (num,l):  2        0    1
Real-space Grid (nr,dr,rmax): 1293    0.0069659443    9.0000000000
Spherical Bessel Basis (nsws,lmax,cutoff):   37    2  161.4736382572
Confining potential (l,width,scale):  0    3.0000000000  100.0000000000
Confining potential (l,width,scale):  1    3.0000000000  100.0000000000
  1         -5.4795203654   -1.3252209296    4.5135257941   -1.6370402169
  2         -5.4480859746   -1.4027979239    4.4305951748   -1.6109819005
  3         -5.4553164790   -1.4212834043    4.4102618304   -1.6059039466
  4         -5.4627841133   -1.4247091338    4.4065122085   -1.6052907585
  5         -5.4662306655   -1.4266814823    4.4043715292   -1.6049352647
  6         -5.4679520247   -1.4277352742    4.4032348712   -1.6047493439
  7         -5.4688359568   -1.4282868030    4.4026432892   -1.6046541449
  8         -5.4692951245   -1.4285734530    4.4023374832   -1.6046056242
  9         -5.4695349887   -1.4287220785    4.4021797781   -1.6045809101
 10         -5.4696606791   -1.4287991022    4.4020984905   -1.6045683155
 11         -5.4697266650   -1.4288390363    4.4020565747   -1.6045618912
 12         -5.4697613504   -1.4288597596    4.4020349416   -1.6045586107
 13         -5.4697795998   -1.4288705262    4.4020237638   -1.6045569335
 14         -5.4697892089   -1.4288761271    4.4020179806   -1.6045560749
 15         -5.4697942720   -1.4288790448    4.4020149844   -1.6045556348
 16         -5.4697969415   -1.4288805668    4.4020134298   -1.6045554088
 17         -5.4697983498   -1.4288813619    4.4020126220   -1.6045552927
 18         -5.4697990933   -1.4288817779    4.4020122017   -1.6045552329
 19         -5.4697994860   -1.4288819957    4.4020119826   -1.6045552021
 20         -5.4697996936   -1.4288821100    4.4020118683   -1.6045551862
 21         -5.4697998034   -1.4288821701    4.4020118085   -1.6045551780
 22         -5.4697998614   -1.4288822017    4.4020117772   -1.6045551737
Atom SCF converged after  22 iterations to a total energy of     -5.46979986

Determining parallel strategy ...
... using space-filling curve
... NGWF load balancing: max     64;  min     64;  average     64
... Projector load balancing: max    128;  min    128;  average    128
... done
Calculating Ewald energy ...
              Ewald: real-space energy =    9498.235686
        Ewald: reciprocal-space energy =       0.096780
         Ewald: (sum_charge)**2 Energy =   11284.672060
         Ewald: (sum_charge**2) Energy =     892.131659
                          Ewald Energy =   -2678.471254
Basis initialisation ...... NGWF spheres initialised
... Projector spheres initialised
... NGWF tight boxes initialised
... Projector tight boxes initialised
... Tight-boxes gathered
... NGWF basis size (local,global):     693332  27907072
... PAW projector initialisation
... done

============================= Charge Augmentation ==============================
                           Aug box size:   11 x  11 x  11
================================================================================

========================== Sparse matrix information ===========================
                        Overlap matrix filling:  44.38%
                        Density kernel filling: 100.00%
              NGWF-Proj overlap matrix filling:  12.19%
                    Aug Overlap matrix filling:  47.03%
                    Hamiltonian matrix filling:  47.03%
                  NGWF diagonal matrix filling:   0.16%
                             KS matrix filling: 100.00% 
                           KSKS matrix filling: 100.00% 
================================================================================

Sparse matrix initialisation ... done
NGWF initialisation ...... done
============ Calculation of NGWF S^-1 using Hotelling algorithm ================ 
         Iteration  |  Frobenius norm and Maximum abs value    (of I-S*S_n^-1)   
               1       0.49137269E+02     0.97697210E+00
               2       0.47962291E+02     0.95577009E+00
               3       0.46184134E+02     0.91787642E+00
               4       0.43856440E+02     0.85538161E+00
               5       0.41052562E+02     0.76238448E+00
               6       0.37756797E+02     0.68470102E+00
               7       0.34260336E+02     0.63566872E+00
               8       0.30915423E+02     0.59467910E+00
               9       0.27411491E+02     0.55182596E+00
              10       0.23033318E+02     0.48613615E+00
              11       0.17306429E+02     0.38078887E+00
              12       0.10567370E+02     0.23847931E+00
              13       0.44791913E+01     0.99241906E-01
              14       0.96288563E+00     0.19601804E-01
              15       0.53544138E-01     0.93984856E-03
              16       0.21412651E-03     0.28135640E-05
              17       0.51882468E-08     0.41377679E-10
              18       0.79844267E-13     0.38857806E-14
================================================================================
Calculating core density ...
================================= Core Density =================================
               Core den box size:   21 x  21 x  21
================================================================================
 ... done
Up spin density kernel initialisation ...... done

Writing density kernel to file "3.3808312_GO_manual_4x64graphite.dkn" ... done

>>> Optimising kernel for current NGWFs:

--------------------------- Ensemble-DFT optimisation --------------------------
Running ScaLAPACK on   40 processor(s).

--------------------------------------------------------------------------------
  Iter                              Commutator    Free_energy(A=E-TS)     DeltaA
#    0                          0.000037738836   -3650.86948773526274  -3.65E+03

Step                       =       0.381966011250
Energy                     =   -3650.869455541483
Entropy (-TS)              =      -0.000032194085
Free energy (A=E-TS)       =   -3650.869487735263
Est. 0K Energy 0.5*(E+A)   =   -3650.869471638373
Residual Non-orthogonality =       0.000000000000
Residual N_electrons       =       0.000000000306

Spin          Integrated_Ne            Fermi_level     Delta_Fermi_level
   1      2559.999999998536         0.208821999767              2.09E-01

                           Spin 1          
     Orb      H-eigenvalues     Occupancies
       1 |    -0.5156131834    1.0000000000 | 
                          ------
    1276 |     0.1749886926    0.9999770854 | 
    1277 |     0.1756043452    0.9999721683 | 
    1278 |     0.1756128354    0.9999720936 | 
    1279 |     0.1760626386    0.9999678346 | 
    1280 |     0.1766809707    0.9999608994 | 
                 - Gap at zero temperature -
    1281 |     0.2435797919    0.0000171132 | 
    1282 |     0.2436025719    0.0000169905 | 
    1283 |     0.2436595772    0.0000166874 | 
    1284 |     0.2438062179    0.0000159324 | 
    1285 |     0.2438289764    0.0000158183 | 
                          ------
    2560 |     1.0430626282    0.0000000000 | 

                       |  Abs_value |  Threshold | Converged
     Delta_Free_energy |   3.65E+03 |   1.00E-06 |        No
     Delta_Energy      |   3.65E+03 |   1.00E-04 |        No
     Delta_Entropy     |   3.22E-05 |   1.00E-04 |       Yes
     Commutator        |   3.77E-05 |   1.00E-05 |        No
     Delta_Fermi_level |   2.09E-01 |   1.00E-03 |        No

  Line search of the free energy minimum:
  Step_type        Step             Free_energy   Predicted_free_energy
.   Initial    0.000000    -3650.86948773526274
.    Trial1    0.381966    -3650.87094799407123
.    Trial2    0.618034    -3650.87097007275406
. Quadratic    0.507749    -3650.87104305844150    -3650.87104346756178

--------------------------------------------------------------------------------
  Iter                              Commutator    Free_energy(A=E-TS)     DeltaA
#    1                          0.000020519601   -3650.87104305844150  -1.56E-03

Step                       =       0.507749436384
Energy                     =   -3650.871011567410
Entropy (-TS)              =      -0.000031491032
Free energy (A=E-TS)       =   -3650.871043058442
Est. 0K Energy 0.5*(E+A)   =   -3650.871027312926
Residual Non-orthogonality =       0.000000000000
Residual N_electrons       =       0.000000000001

Spin          Integrated_Ne            Fermi_level     Delta_Fermi_level
   1      2559.999999999996         0.210159128457              1.34E-03

                           Spin 1          
     Orb      H-eigenvalues     Occupancies
       1 |    -0.5153927522    1.0000000000 | 
                          ------
    1276 |     0.1763359537    0.9999770120 | 
    1277 |     0.1768023019    0.9999733649 | 
    1278 |     0.1768231787    0.9999731887 | 
    1279 |     0.1774189633    0.9999676391 | 
    1280 |     0.1779004956    0.9999623248 | 
                 - Gap at zero temperature -
    1281 |     0.2449462797    0.0000169553 | 
    1282 |     0.2449878071    0.0000167344 | 
    1283 |     0.2450520964    0.0000163981 | 
    1284 |     0.2452069728    0.0000156154 | 
    1285 |     0.2452209705    0.0000155466 | 
                          ------
    2560 |     1.0452136486    0.0000000000 | 

                       |  Abs_value |  Threshold | Converged
     Delta_Free_energy |   1.56E-03 |   1.00E-06 |        No
     Delta_Energy      |   1.56E-03 |   1.00E-04 |        No
     Delta_Entropy     |   7.03E-07 |   1.00E-04 |       Yes
     Commutator        |   2.05E-05 |   1.00E-05 |        No
     Delta_Fermi_level |   1.34E-03 |   1.00E-03 |        No

  Line search of the free energy minimum:
  Step_type        Step             Free_energy   Predicted_free_energy
.   Initial    0.000000    -3650.87104305844150
.    Trial1    0.507749    -3650.87114459111808
.    Trial2    0.695772    -3650.87055273971828
. Quadratic    0.274655    -3650.87140683879261    -3650.87140601667670

--------------------------------------------------------------------------------
  Iter                              Commutator    Free_energy(A=E-TS)     DeltaA
#    2                          0.000012532962   -3650.87140683879261  -3.64E-04

Step                       =       0.274654623442
Energy                     =   -3650.871375587493
Entropy (-TS)              =      -0.000031251833
Free energy (A=E-TS)       =   -3650.871406838793
Est. 0K Energy 0.5*(E+A)   =   -3650.871391213143
Residual Non-orthogonality =       0.000000000000
Residual N_electrons       =       0.000000000534

Spin          Integrated_Ne            Fermi_level     Delta_Fermi_level
   1      2559.999999997464         0.210495388684              3.36E-04

                           Spin 1          
     Orb      H-eigenvalues     Occupancies
       1 |    -0.5153401959    1.0000000000 | 
                          ------
    1276 |     0.1766247849    0.9999773537 | 
    1277 |     0.1771307613    0.9999734304 | 
    1278 |     0.1771520854    0.9999732509 | 
    1279 |     0.1777052321    0.9999681459 | 
    1280 |     0.1782267450    0.9999624437 | 
                 - Gap at zero temperature -
    1281 |     0.2453174357    0.0000167695 | 
    1282 |     0.2453596887    0.0000165472 | 
    1283 |     0.2454218850    0.0000162254 | 
    1284 |     0.2455857378    0.0000154073 | 
    1285 |     0.2456010027    0.0000153332 | 
                          ------
    2560 |     1.0457701416    0.0000000000 | 

                       |  Abs_value |  Threshold | Converged
     Delta_Free_energy |   3.64E-04 |   1.00E-06 |        No
     Delta_Energy      |   3.64E-04 |   1.00E-04 |        No
     Delta_Entropy     |   2.39E-07 |   1.00E-04 |       Yes
     Commutator        |   1.25E-05 |   1.00E-05 |        No
     Delta_Fermi_level |   3.36E-04 |   1.00E-03 |       Yes

  Line search of the free energy minimum:
  Step_type        Step             Free_energy   Predicted_free_energy
.   Initial    0.000000    -3650.87140683879261
.    Trial1    0.274655    -3650.87153678481445
.    Trial2    0.551712    -3650.87147642809987
. Quadratic    0.326212    -3650.87154009369488    -3650.87154011393159

--------------------------------------------------------------------------------
  Iter                              Commutator    Free_energy(A=E-TS)     DeltaA
#    3                          0.000008796271   -3650.87154009369488  -1.33E-04

Step                       =       0.326211873224
Energy                     =   -3650.871509038841
Entropy (-TS)              =      -0.000031054902
Free energy (A=E-TS)       =   -3650.871540093695
Est. 0K Energy 0.5*(E+A)   =   -3650.871524566268
Residual Non-orthogonality =       0.000000000000
Residual N_electrons       =       0.000000000049

Spin          Integrated_Ne            Fermi_level     Delta_Fermi_level
   1      2559.999999999766         0.210786330179              2.91E-04

                           Spin 1          
     Orb      H-eigenvalues     Occupancies
       1 |    -0.5152882079    1.0000000000 | 
                          ------
    1276 |     0.1768888214    0.9999775453 | 
    1277 |     0.1774052317    0.9999735682 | 
    1278 |     0.1774266456    0.9999733889 | 
    1279 |     0.1779690113    0.9999684180 | 
    1280 |     0.1785010226    0.9999626408 | 
                 - Gap at zero temperature -
    1281 |     0.2456312698    0.0000166487 | 
    1282 |     0.2456736564    0.0000164273 | 
    1283 |     0.2457354733    0.0000161098 | 
    1284 |     0.2459010830    0.0000152890 | 
    1285 |     0.2459175904    0.0000152095 | 
                          ------
    2560 |     1.0462640461    0.0000000000 | 

                       |  Abs_value |  Threshold | Converged
     Delta_Free_energy |   1.33E-04 |   1.00E-06 |        No
     Delta_Energy      |   1.33E-04 |   1.00E-04 |        No
     Delta_Entropy     |   1.97E-07 |   1.00E-04 |       Yes
     Commutator        |   8.80E-06 |   1.00E-05 |       Yes
     Delta_Fermi_level |   2.91E-04 |   1.00E-03 |       Yes

  Line search of the free energy minimum:
  Step_type        Step             Free_energy   Predicted_free_energy
.   Initial    0.000000    -3650.87154009369488
.    Trial1    0.326212    -3650.87159893743410
.    Trial2    0.583576    -3650.87151807270584
. Quadratic    0.269526    -3650.87160167226421    -3650.87160166073045

--------------------------------------------------------------------------------
  Iter                              Commutator    Free_energy(A=E-TS)     DeltaA
#    4                          0.000006062845   -3650.87160167226421  -6.16E-05

Step                       =       0.269526091055
Energy                     =   -3650.871570723543
[...]
 C   275 -- C   555       -0.10      5.37000
 C   274 -- C   554       -0.10      5.37000
 C   273 -- C   553       -0.10      5.37000
 C   272 -- C   552       -0.10      5.37000
 C   271 -- C   551       -0.10      5.37000
 C   270 -- C   550       -0.10      5.37000
 C   269 -- C   549       -0.10      5.37000
 C   268 -- C   548       -0.10      5.37000
 C   267 -- C   547       -0.10      5.37000
 C   266 -- C   546       -0.10      5.37000
 C   130 -- C   465       -0.10      5.37000
 C   129 -- C   464       -0.10      5.37000
 C   128 -- C   463       -0.10      5.37000
 C   127 -- C   462       -0.10      5.37000
 C   126 -- C   461       -0.10      5.37000
 C   240 -- C   525       -0.10      5.37000
 C   239 -- C   524       -0.10      5.37000
 C   238 -- C   523       -0.10      5.37000
 C   237 -- C   522       -0.10      5.37000
 C   236 -- C   521       -0.10      5.37000
 C    23 -- C   478       -0.10      5.37202
 C    49 -- C   469       -0.10      5.37202
 C    48 -- C   468       -0.10      5.37202
 C    47 -- C   467       -0.10      5.37202
 C    22 -- C   477       -0.10      5.37202
 C    46 -- C   466       -0.10      5.37202
 C    21 -- C   476       -0.10      5.37202
 C    25 -- C   480       -0.10      5.37202
 C    24 -- C   479       -0.10      5.37202
 C    50 -- C   470       -0.10      5.37202
 C    24 -- C   449       -0.10      5.37202
 C     6 -- C   416       -0.10      5.37202
 C    23 -- C   448       -0.10      5.37202
 C    22 -- C   447       -0.10      5.37202
 C    10 -- C   470       -0.10      5.37202
 C     5 -- C   450       -0.10      5.37202
 C    21 -- C   446       -0.10      5.37202
 C    10 -- C   420       -0.10      5.37202
 C     9 -- C   469       -0.10      5.37202
 C     9 -- C   419       -0.10      5.37202
 C     8 -- C   468       -0.10      5.37202
 C     4 -- C   449       -0.10      5.37202
 C     8 -- C   418       -0.10      5.37202
 C     2 -- C   447       -0.10      5.37202
 C     7 -- C   467       -0.10      5.37202
 C     7 -- C   417       -0.10      5.37202
 C     1 -- C   446       -0.10      5.37202
 C     6 -- C   466       -0.10      5.37202
 C    25 -- C   450       -0.10      5.37202
 C     3 -- C   448       -0.10      5.37202
 C   285 -- C   580       -0.10      5.37202
 C   284 -- C   579       -0.10      5.37202
 C   283 -- C   578       -0.10      5.37202
 C   282 -- C   577       -0.10      5.37202
 C   281 -- C   576       -0.10      5.37202
 C   260 -- C   605       -0.10      5.37202
 C   259 -- C   604       -0.10      5.37202
 C   258 -- C   603       -0.10      5.37202
 C   257 -- C   602       -0.10      5.37202
 C   256 -- C   601       -0.10      5.37202
 C   219 -- C   569       -0.10      5.37202
 C   218 -- C   568       -0.10      5.37202
 C   217 -- C   567       -0.10      5.37202
 C   216 -- C   566       -0.10      5.37202
 C   250 -- C   540       -0.10      5.37202
 C   249 -- C   539       -0.10      5.37202
 C   248 -- C   538       -0.10      5.37202
 C   247 -- C   537       -0.10      5.37202
 C   246 -- C   536       -0.10      5.37202
 C   220 -- C   570       -0.10      5.37202
 C   205 -- C   550       -0.10      5.37202
 C   204 -- C   549       -0.10      5.37202
 C   203 -- C   548       -0.10      5.37202
 C   202 -- C   547       -0.10      5.37202
 C   201 -- C   546       -0.10      5.37202
 C   260 -- C   550       -0.10      5.37202
 C   259 -- C   549       -0.10      5.37202
 C   258 -- C   548       -0.10      5.37202
 C   257 -- C   547       -0.10      5.37202
 C   256 -- C   546       -0.10      5.37202
 C   230 -- C   580       -0.10      5.37202
 C   230 -- C   525       -0.10      5.37202
 C   229 -- C   579       -0.10      5.37202
 C   229 -- C   524       -0.10      5.37202
 C   228 -- C   578       -0.10      5.37202
 C   228 -- C   523       -0.10      5.37202
 C   227 -- C   577       -0.10      5.37202
 C   227 -- C   522       -0.10      5.37202
 C   226 -- C   576       -0.10      5.37202
 C   226 -- C   521       -0.10      5.37202
 C   220 -- C   515       -0.10      5.37202
 C   219 -- C   514       -0.10      5.37202
 C   218 -- C   513       -0.10      5.37202
 C   217 -- C   512       -0.10      5.37202
 C   216 -- C   511       -0.10      5.37202
 C    11 -- C   331       -0.10      5.37202
 C   195 -- C   540       -0.10      5.37202
 C   195 -- C   500       -0.10      5.37202
 C   194 -- C   539       -0.10      5.37202
 C   194 -- C   499       -0.10      5.37202
 C   193 -- C   538       -0.10      5.37202
 C   193 -- C   498       -0.10      5.37202
 C   192 -- C   537       -0.10      5.37202
 C   192 -- C   497       -0.10      5.37202
 C   191 -- C   536       -0.10      5.37202
 C   191 -- C   496       -0.10      5.37202
 C   180 -- C   515       -0.10      5.37202
 C    40 -- C   365       -0.10      5.37202
 C   179 -- C   514       -0.10      5.37202
 C   178 -- C   513       -0.10      5.37202
 C   177 -- C   512       -0.10      5.37202
 C    39 -- C   364       -0.10      5.37202
 C   176 -- C   511       -0.10      5.37202
 C    38 -- C   363       -0.10      5.37202
 C    37 -- C   362       -0.10      5.37202
 C    36 -- C   361       -0.10      5.37202
 C   150 -- C   440       -0.10      5.37202
 C   149 -- C   439       -0.10      5.37202
 C   148 -- C   438       -0.10      5.37202
 C   147 -- C   437       -0.10      5.37202
 C   146 -- C   436       -0.10      5.37202
 C    15 -- C   335       -0.10      5.37202
 C    65 -- C   345       -0.10      5.37202
 C    64 -- C   344       -0.10      5.37202
 C   135 -- C   460       -0.10      5.37202
 C    63 -- C   343       -0.10      5.37202
 C   134 -- C   459       -0.10      5.37202
 C    30 -- C   325       -0.10      5.37202
 C   133 -- C   458       -0.10      5.37202
 C    62 -- C   342       -0.10      5.37202
 C    14 -- C   334       -0.10      5.37202
 C   132 -- C   457       -0.10      5.37202
 C   131 -- C   456       -0.10      5.37202
 C    61 -- C   341       -0.10      5.37202
 C    29 -- C   324       -0.10      5.37202
 C    28 -- C   323       -0.10      5.37202
 C    13 -- C   333       -0.10      5.37202
 C    27 -- C   322       -0.10      5.37202
 C    26 -- C   321       -0.10      5.37202
 C    12 -- C   332       -0.10      5.37202
 C    95 -- C   365       -0.10      5.37202
 C    94 -- C   364       -0.10      5.37202
 C    93 -- C   363       -0.10      5.37202
 C    92 -- C   362       -0.10      5.37202
 C    91 -- C   361       -0.10      5.37202
 C    65 -- C   395       -0.10      5.37202
 C    64 -- C   394       -0.10      5.37202
 C    63 -- C   393       -0.10      5.37202
 C    30 -- C   355       -0.10      5.37202
 C    62 -- C   392       -0.10      5.37202
 C    61 -- C   391       -0.10      5.37202
 C    29 -- C   354       -0.10      5.37202
 C    28 -- C   353       -0.10      5.37202
 C    27 -- C   352       -0.10      5.37202
 C    26 -- C   351       -0.10      5.37202
 C    55 -- C   335       -0.10      5.37202
 C    54 -- C   334       -0.10      5.37202
 C    53 -- C   333       -0.10      5.37202
 C    52 -- C   332       -0.10      5.37202
 C    51 -- C   331       -0.10      5.37202
 C    95 -- C   425       -0.10      5.37202
 C    94 -- C   424       -0.10      5.37202
 C    93 -- C   423       -0.10      5.37202
 C    92 -- C   422       -0.10      5.37202
 C    91 -- C   421       -0.10      5.37202
 C    85 -- C   355       -0.10      5.37202
 C    84 -- C   354       -0.10      5.37202
 C    83 -- C   353       -0.10      5.37202
 C    82 -- C   352       -0.10      5.37202
 C    81 -- C   351       -0.10      5.37202
 C   120 -- C   395       -0.10      5.37202
 C    55 -- C   385       -0.10      5.37202
 C   119 -- C   394       -0.10      5.37202
 C   118 -- C   393       -0.10      5.37202
 C   117 -- C   392       -0.10      5.37202
 C    54 -- C   384       -0.10      5.37202
 C   116 -- C   391       -0.10      5.37202
 C    53 -- C   383       -0.10      5.37202
 C    52 -- C   382       -0.10      5.37202
 C    51 -- C   381       -0.10      5.37202
 C   106 -- C   436       -0.10      5.37202
 C   106 -- C   376       -0.10      5.37202
 C    80 -- C   410       -0.10      5.37202
 C    79 -- C   409       -0.10      5.37202
 C    78 -- C   408       -0.10      5.37202
 C    77 -- C   407       -0.10      5.37202
 C    76 -- C   406       -0.10      5.37202
 C   135 -- C   410       -0.10      5.37202
 C   134 -- C   409       -0.10      5.37202
 C   133 -- C   408       -0.10      5.37202
 C   132 -- C   407       -0.10      5.37202
 C   131 -- C   406       -0.10      5.37202
 C   110 -- C   440       -0.10      5.37202
 C   110 -- C   380       -0.10      5.37202
 C   109 -- C   439       -0.10      5.37202
 C   109 -- C   379       -0.10      5.37202
 C   108 -- C   438       -0.10      5.37202
 C   108 -- C   378       -0.10      5.37202
 C   107 -- C   437       -0.10      5.37202
 C   107 -- C   377       -0.10      5.37202
 C   215 -- C   635       -0.10      5.38000
 C   214 -- C   634       -0.10      5.38000
 C   213 -- C   633       -0.10      5.38000
 C   212 -- C   632       -0.10      5.38000
 C   211 -- C   631       -0.10      5.38000
 C   190 -- C   620       -0.10      5.38000
 C   189 -- C   619       -0.10      5.38000
 C   188 -- C   618       -0.10      5.38000
 C   187 -- C   617       -0.10      5.38000
 C   186 -- C   616       -0.10      5.38000
 C   175 -- C   595       -0.10      5.38000
 C   174 -- C   594       -0.10      5.38000
 C   173 -- C   593       -0.10      5.38000
 C   172 -- C   592       -0.10      5.38000
 C   171 -- C   591       -0.10      5.38000
 C   245 -- C   640       -0.10      5.38000
 C   244 -- C   639       -0.10      5.38000
 C   243 -- C   638       -0.10      5.38000
 C   242 -- C   637       -0.10      5.38000
 C   241 -- C   636       -0.10      5.38000
==================================================


=================== Orbital energy and occupancy information ===================

      Total number of orbitals:    2560
        Occupancy sum (kernel):    1279.999999999
   Occupancy sum (eigenvalues):    1279.999999999
                 HOMO-LUMO gap:       0.063488212 Eh
                 Mid-gap level:       0.256838799 Eh

                        Orbital | Energy (Eh) | Occupancy
                            1    -0.468004358   1.0000000
                        .......   ...........   .........
                         1271     0.219553422   0.9999888
                         1272     0.219566086   0.9999888
                         1273     0.220025037   0.9999870
                         1274     0.220037671   0.9999870
                         1275     0.223671597   0.9999589
                         1276     0.223672527   0.9999589
                         1277     0.224128844   0.9999526
                         1278     0.224129906   0.9999526
                         1279     0.224648075   0.9999441
                         1280     0.225094693   0.9999357
                        ....... -- gap at 0K -- .........
                         1281     0.288582905   0.0000304
                         1282     0.288593788   0.0000303
                         1283     0.288835252   0.0000281
                         1284     0.288846200   0.0000280
                         1285     0.289298616   0.0000243
                         1286     0.289310168   0.0000243
                         1287     0.289565880   0.0000224
                         1288     0.289577364   0.0000223
                         1289     0.289833948   0.0000206
                         1290     0.290047008   0.0000191
                        .......   ...........   .........
                         2560     1.148307395   0.0000000

================================================================================

===================== Writing canonical molecular orbitals =====================
| Orbital  Energy (eV)  Norm     |
| HOMO      6.12513827  1.000000 | Writing "3.3808312_GO_manual_4x64graphite_HOMO.cube" ... done
Writing "3.3808312_GO_manual_4x64graphite_HOMO.dx" ... done
| LUMO      7.85274042  1.000000 | Writing "3.3808312_GO_manual_4x64graphite_LUMO.cube" ... done
Writing "3.3808312_GO_manual_4x64graphite_LUMO.dx" ... done
================================================================================
 
===================== Density of States (DOS) calculation ======================
Writing "3.3808312_GO_manual_4x64graphite_DOS.txt" ...  done
================================================================================
 
Writing bands to file "3.3808312_GO_manual_4x64graphite.val_bands" ... done
 
================ Projected Density of States (pDOS) calculation ================
 
Constructing AM resolved functions  ...... done
Writing NGWF plot files in formats: CUBE DX ...  done
 
Performing overlap integrals ...  done
 
Computing pDOS weights ...  done
 
All bands spilling parameter =   3.78 %
Occupancy-weighted spilling parameter =   0.87 %
 
 => Outputting data for OptaDOS <=
 
Writing pDOS weights to file "3.3808312_GO_manual_4x64graphite.val_pdos_bin" ... done
 
Writing band gradients to file "3.3808312_GO_manual_4x64graphite.val_dome_bin" ... done
 
Writing Castep output cell file to "3.3808312_GO_manual_4x64graphite-out.cell" ... done
 
 => Computing Gaussian smeared pDOS <= 
Writing "3.3808312_GO_manual_4x64graphite_PDOS.txt" ...  done
 
 => Computing Occupancy-weighted Gaussian smeared pDOS <= 
Writing "3.3808312_GO_manual_4x64graphite_occ_PDOS.txt" ...  done
  => Band centres: 
 S band centre of group 1:  -13.845505 eV
 P band centre of group 1:   -6.732230 eV
  Band centres done. <=
  => Integrated number of electrons in each AM band: 
 S num electrons of group 1:  575.642963
 P num electrons of group 1: 1962.001807
  Integrated number of electrons done. <=
================================================================================

------------------------------ TIMING INFORMATION ------------------------------
AVERAGE TIME:    4153.765s on     40 node(s)                                    
TOTAL TIME:      4153.765s on     40 node(s)                                    
================= AVERAGE TIMINGS FROM ALL NODES (CUMULATIVE) ==================
|| TAG                                    #calls    cpu time   %total  Gflops ||
|| work_imbalance                       :     1        0.00s   0.000%  ------ ||
|| paw_tcore_hartree_on_grid            :     1        0.00s   0.000%  ------ ||
|| paw_tcore_density                    :     1        0.01s   0.000%  ------ ||
|| paw_sphere_density_on_grid           :     1        0.01s   0.000%  ------ ||
|| sparse_set_to_garbage                :   171        0.03s   0.001%  ------ ||
|| paw_dij_hartree                      :   354        0.04s   0.001%  ------ ||
|| pseudo_make_structure_factor         :     1        0.05s   0.001%  ------ ||
|| basis_extract_function_from_box      :  1920        0.08s   0.002%  ------ ||
|| paw_species_calc_proj_prec_mat       :     1        0.12s   0.003%  ------ ||
|| paw_dataset_init                     :     1        0.15s   0.004%  ------ ||
|| density_init_guess_real              :     1        0.20s   0.005%  ------ ||
|| ngwfs_initialise_from_radial         :     2        0.67s   0.016%  ------ ||
|| restart_kernel_write                 :    16        0.90s   0.022%  ------ ||
|| sparse_init                          :     1        0.99s   0.024%  ------ ||
|| dense_normal_eigensolve              :     1        0.99s   0.024%  ------ ||
|| hartree_on_grid                      :   266        1.18s   0.028%  ------ ||
|| ewald_calculate_energy               :     1        2.61s   0.063%  ------ ||
|| projectors_init_fftbox_recip         :   151        3.03s   0.073%  ------ ||
|| fourier_apply_box_pair               :  2848        4.76s   0.115% 554.730 ||
|| basis_copy_function_to_box           : 25152        5.27s   0.127%  ------ ||
|| augmentation_screen_dij              :   271        5.82s   0.140%  ------ ||
|| sw_init                              :     1        6.68s   0.161%  ------ ||
|| sparse_embed_hotelling_invert_embed  :    29        8.78s   0.211%  ------ ||
|| ngwf_gradient_coeffs                 :    15       11.74s   0.283%  ------ ||
|| fourier_apply_cell_backward          :  8217       15.13s   0.364%  64.320 ||
|| fourier_apply_cell_forward           :  7686       17.21s   0.414%  52.876 ||
|| cell_grid_extract_box_real           : 10556       19.10s   0.460%  ------ ||
|| sparse_trace                         :  3208       19.47s   0.469%  ------ ||
|| paw_dij_xc                           :   354       23.75s   0.572%  ------ ||
|| cell_grid_deposit_box_real           : 34224       29.27s   0.705%  ------ ||
|| aug_nonlocal_mat                     :   339       35.19s   0.847%  ------ ||
|| augmentation_density_on_grid         :   266       51.22s   1.233%  ------ ||
|| hamiltonian_energy_components        :     3       52.64s   1.267%  ------ ||
|| eigenstates_pdos                     :     1       54.62s   1.315%  ------ ||
|| eigenstates_calculate                :     1       58.88s   1.418%  ------ ||
|| density_fftbox_deposit_to_cell       : 17024       62.70s   1.509%  ------ ||
|| function_ops_brappd_ketppd           :    60       64.89s   1.562%  ------ ||
|| nlxc_vdw_energy                      :   530       68.34s   1.645%  ------ ||
|| projectors_func_ovlp_box             :    30       70.67s   1.701%  ------ ||
|| xc_energy_potential                  :   265       76.66s   1.846%  ------ ||
|| properties_calculate                 :     1      106.20s   2.557%  ------ ||
|| dense_eigensolve                     :   233      112.18s   2.701%  ------ ||
|| integrals_kinetic                    :    29      113.87s   2.741%  ------ ||
|| potential_apply_to_ngwf_batch        :   328      134.37s   3.235%  ------ ||
|| restart_ngwfs_tightbox_output        :    14      141.58s   3.409%  ------ ||
|| sparse_product                       :  3240      144.81s   3.486%  ------ ||
|| basis_dot_function_with_box          : 8.215M     226.79s   5.460%  ------ ||
|| fourier_apply_box                    : 79328      247.53s   5.959% 972.994 ||
|| edft_diag_ngwf_ham                   :   232      265.43s   6.390%  ------ ||
|| projectors_gradient_batch            :    60      274.72s   6.614%  ------ ||
|| integrals_locpot_mat_els_batch       :   328      322.97s   7.775%  ------ ||
|| density_fftbox_interpolate_multiply  : 17024      327.74s   7.890%  ------ ||
|| projectors_grad_precond_batch        :    60      380.70s   9.165%  ------ ||
|| density_batch_interp_deposit         :  1064      437.37s  10.529%  ------ ||
|| integrals_locpot_dbl_grid            :    82      459.07s  11.052%  ------ ||
|| edft_apply_smearing_operator         :   232      513.83s  12.370%  ------ ||
|| basis_add_function_to_box            : 23.70M     631.78s  15.210%  ------ ||
|| ngwf_gradient_build_batch            :    60      702.09s  16.903%  ------ ||
|| ngwf_gradient_batch                  :    60      947.13s  22.802%  ------ ||
|| density_batch_row_sums               :  1064      955.30s  22.998%  ------ ||
|| ngwf_gradient_lnv                    :    15      993.05s  23.907%  ------ ||
|| density_on_dbl_grid                  :   266     1404.52s  33.813%  ------ ||
|| hamiltonian_lhxc_calculate           :   261     1508.13s  36.308%  ------ ||
|| edft_calculate                       :    15     2462.57s  59.285%  ------ ||
|| ngwf_cg_optimise                     :     1     4021.32s  96.811%  ------ ||
|| total_time                           :     1     4153.76s 100.000%  ------ ||
================================================================================
Overhead of generating timer report: 
- 0 ms averaging over threads,
- 5 ms ensuring consistency across MPI ranks,
- 0 ms printing in order.

Job completed: 24-02-2020 23:23 (-0000)

