 +---------------------------------------------------------------+
 |                                                               |
 |        ####### #     # ####### ####### ####### ######         |
 |        #     # ##    # #          #    #       #     #        |
 |        #     # # #   # #          #    #       #     #        |
 |        #     # #  #  # #####      #    #####   ######         |
 |        #     # #   # # #          #    #       #              |
 |        #     # #    ## #          #    #       #              |
 |        ####### #     # #######    #    ####### #              |
 |                                                               |
 |        Linear-Scaling Ab Initio Total Energy Program          |
 |                                                               |
 |          Release for academic collaborators of ODG            |
 |                                             Version 5.3.2.12  |
 |                                                               |
 +---------------------------------------------------------------+
 |                                                               |
 |  Authors:                                                     |
 |  Jacek Dziedzic, Peter D. Haynes, Nicholas D. M. Hine,        |
 |  Arash. A. Mostofi, Mike C. Payne and Chris-Kriton Skylaris   |
 |                                                               |
 |  Contributors:                                                |
 |  J. Aarons, L. Andrinopoulos, P. W. Avraam, R. A. Bell,       |
 |  A. Bhandari, G. A. Bramley, R. J. Charlton, S. J. Clark,     |
 |  R. J. Clements, G. C. Constantinescu, F. Corsetti,           |
 |  N. Corsini, O. Dieguez, S. M. M. Dubois, K. K. B. Duff,      |
 |  J. M. Escartin, A. Greco, H. Helal, Q. O. Hill, L. P. Lee,   |
 |  J.-H. Li, E. B. Linscott, G. Moynihan, D. D. O`Regan,        |
 |  O. K. Okan, M. J. S. Phipps, C. J. Pickard,                  |
 |  J. C. A. Prentice, M. I. J. Probert, L. E. Ratcliff,         |
 |  M. Robinson, A. Ruiz Serrano, J. S. Spencer, E. W. Tait,     |
 |  G. Teobaldi, D. Turban, V. Vitale, K. A. Wilkinson,          |
 |  C. Weber, J. C. Womack, N. Yeung and T. J. Zuehlsdorff       |
 |                                                               |
 |                                   Copyright (c) 2004-2020     |
 |                                                               |
 |  Please cite:                                                 |
 |  "Introducing ONETEP: Linear-scaling density functional       |
 |   simulations on parallel computers".                         |
 |   C.-K. Skylaris, P. D. Haynes, A. A. Mostofi, M. C. Payne.   |
 |   J. Chem. Phys. 122 084119 (2005).                           |
 |                                                               |
 |          in all publications arising from your use of ONETEP. |
 |                                                               |
 +---------------------------------------------------------------+
 |                                                               |
 |   ONETEP is based on developments described in the following  |
 |   publications:                                               |
 |                                                               |
 |  "Nonorthogonal generalized Wannier function pseudopotential  |
 |   plane-wave method".                                         |
 |   C.-K. Skylaris, A. A. Mostofi, P. D. Haynes, O. Dieguez,    |
 |   M. C. Payne.                                                |
 |   Phys. Rev. B 66 035119 (2002).                              |
 |                                                               |
 |  "Preconditioned iterative minimization for linear-scaling    |
 |   electronic structure calculations".                         |
 |   A. A. Mostofi, P. D. Haynes, C.-K. Skylaris, M. C. Payne.   |
 |   J. Chem. Phys. 119(17), pp.8842-8848 (2003).                |
 |                                                               |
 |  "Total-energy calculations on a real space grid with         |
 |   localized functions and a plane-wave basis".                |
 |   A. A. Mostofi, C.-K. Skylaris, P. D. Haynes, M. C. Payne.   |
 |   Comput. Phys. Commun. 147, pp.788-802 (2002).               |
 |                                                               |
 |  "Accurate kinetic energy evaluation in electronic structure  |
 |   calculations with localized functions on real space grids"  |
 |   C.-K. Skylaris, A. A. Mostofi, P. D. Haynes, C. J. Pickard, |
 |   M. C. Payne.                                                |
 |   Comput. Phys. Commun. 140, pp.315-322 (2001).               |
 |                                                               |
 |  "Accurate ionic forces and geometry optimization in linear-  |
 |   scaling density-functional theory with local orbitals"      |
 |   N. D. M. Hine, M. Robinson, P. D. Haynes, C.-K. Skylaris,   |
 |   M. C. Payne, and A. A. Mostofi.                             |
 |   Phys. Rev. B 83 195102 (2011).                              |
 |                                                               |
 +---------------------------------------------------------------+

Job started: 24-02-2020 23:15 (-0000)
 
Reading parameters from file "3.5418184_GO_manual_4x64graphite.dat" ...

WARNING: "cutoff_energy" not specified, but "psinc_spacing" specified.
         Using the latter to set the KE cutoff energy to  732.32021eV,
         thus *overriding* the default.

... done

If your calculation crashes here, before "Checking processes and threads..."
is displayed, then your stack size is insufficient.
If so, use "ulimit -s unlimited" at runtime.
You can disable this check with "check_stack_size F".

Checking processes and threads...
   Determining the default number of threads...
      No default threads set at compilation time: defaulting to 1.
      OpenMP library call suggests 4 threads.
      Hybrid MPI-OpenMP compilation detected.
      Number of MPI processes > 1.
      OMP_NUM_THREADS environment variable present and
      its value matches the one obtained from the OpenMP library call.
      Using this value as default.
      Default threads: 4
      Default applies to threads_max and threads_num_fftboxes.
      Settings in the input file override this default.
   ... done

   Running with 40 MPI processes.
   There are 10 MPI processes running on the same node as the root process.
   Each MPI process is using: 
               1 threads for simulation cell FFTs.
               1 threads for parallel FFT box operations.
               4 threads for loops over batched FFT box operations.
               4 threads in other parallel regions.
... done

Basic input checks...
Resetting ngwf_cg_rotate to TRUE for EDFT calculations
... done

Reading geometry and species blocks from file "3.5418184_GO_manual_4x64graphite.dat" ...
    
  PSINC grid spacing along a1 set to   0.511215680000a0 from input file.
  PSINC grid spacing along a2 set to   0.531284090000a0 from input file.
  PSINC grid spacing along a3 set to   0.507051550000a0 from input file.
  Number of PPD points along a3 set to 1.  This is 
  the default value, it may have been provided also in the input file.
... done
 Writing xyz coordinates to file "3.5418184_GO_manual_4x64graphite.xyz" ... done


--------------------------------------------------------------------------------
---------------------------------- INPUT FILE ----------------------------------
--------------------------------------------------------------------------------

task : singlepoint                                                              
do_properties : true                                                            
dx_format T                                                                     
edft T                                                                          
output_detail VERBOSE                                                           
write_xyz T                                                                     
xc_functional OPTPBE                                                            
PSINC_SPACING 0.51121568 0.53128409 0.50705155                                  
paw T                                                                           
pdos_max_l = 2                                                                  
dos_smear  0.1 eV                                                               
popn_calculate T                                                                
PDOS_PSEUDOATOMIC T                                                             
PDOS_REDUCE_SWS F                                                               
PDOS_CONSTRUCT_BASIS F                                                          
PDOS_LOWDIN T                                                                   
PDOS_ORTH_ATOM_BLOCKS F                                                         
PDOS_LCAO_OPTIMIZE F                                                            
pdos_optados_output T                                                           
homo_plot 0                                                                     
lumo_plot 0                                                                     
homo_dens_plot -1                                                               
lumo_dens_plot -1                                                               
%BLOCK SPECIES                                                                  
C C 6 4 9.0                                                                     
%ENDBLOCK SPECIES                                                               
%BLOCK SPECIES_POT                                                              
C "~/pp/paw/c_pbe_abinit.paw"                                                   
%ENDBLOCK SPECIES_POT                                                           
%BLOCK SPECIES_ATOMIC_SET                                                       
C "SOLVE conf=2s2 2p2"                                                          
%ENDBLOCK SPECIES_ATOMIC_SET                                                    
%BLOCK LATTICE_CART                                                             
32.21  0.00  0.00                                                               
0.00 18.59  0.00                                                                
0.00  0.00 66.93                                                                
%ENDBLOCK LATTICE_CART                                                          
%BLOCK POSITIONS_ABS                                                            
C  0.00  0.00  3.35                                                             
C  0.00  0.00 16.73                                                             
C  0.00  0.00 30.12                                                             
C  0.00  0.00 43.51                                                             
C  0.00  0.00 56.89                                                             
C  0.00  4.65  3.35                                                             
C  0.00  4.65 16.73                                                             
C  0.00  4.65 30.12                                                             
C  0.00  4.65 43.51                                                             
C  0.00  4.65 56.89                                                             
C  4.03  2.32  3.35                                                             
C  4.03  2.32 16.73                                                             
C  4.03  2.32 30.12                                                             
C  4.03  2.32 43.51                                                             
C  4.03  2.32 56.89                                                             
C  8.05  0.00  3.35                                                             
C  8.05  0.00 16.73                                                             
C  8.05  0.00 30.12                                                             
C  8.05  0.00 43.51                                                             
C  8.05  0.00 56.89                                                             
C  0.00  9.30  3.35                                                             
C  0.00  9.30 16.73                                                             
C  0.00  9.30 30.12                                                             
C  0.00  9.30 43.51                                                             
C  0.00  9.30 56.89                                                             
C  4.03  6.97  3.35                                                             
C  4.03  6.97 16.73                                                             
C  4.03  6.97 30.12                                                             
C  4.03  6.97 43.51                                                             
C  4.03  6.97 56.89                                                             
C  8.05  4.65  3.35                                                             
C  8.05  4.65 16.73                                                             
C  8.05  4.65 30.12                                                             
C  8.05  4.65 43.51                                                             
C  8.05  4.65 56.89                                                             
C 12.08  2.32  3.35                                                             
C 12.08  2.32 16.73                                                             
C 12.08  2.32 30.12                                                             
C 12.08  2.32 43.51                                                             
C 12.08  2.32 56.89                                                             
C 16.10  0.00  3.35                                                             
C 16.10  0.00 16.73                                                             
C 16.10  0.00 30.12                                                             
C 16.10  0.00 43.51                                                             
C 16.10  0.00 56.89                                                             
C  0.00 13.95  3.35                                                             
C  0.00 13.95 16.73                                                             
C  0.00 13.95 30.12                                                             
C  0.00 13.95 43.51                                                             
C  0.00 13.95 56.89                                                             
C  4.03 11.62  3.35                                                             
C  4.03 11.62 16.73                                                             
C  4.03 11.62 30.12                                                             
C  4.03 11.62 43.51                                                             
C  4.03 11.62 56.89                                                             
C  8.05  9.30  3.35                                                             
C  8.05  9.30 16.73                                                             
C  8.05  9.30 30.12                                                             
C  8.05  9.30 43.51                                                             
C  8.05  9.30 56.89                                                             
C 12.08  6.97  3.35                                                             
C 12.08  6.97 16.73                                                             
C 12.08  6.97 30.12                                                             
C 12.08  6.97 43.51                                                             
C 12.08  6.97 56.89                                                             
C 16.10  4.65  3.35                                                             
C 16.10  4.65 16.73                                                             
C 16.10  4.65 30.12                                                             
C 16.10  4.65 43.51                                                             
C 16.10  4.65 56.89                                                             
C 20.13  2.32  3.35                                                             
C 20.13  2.32 16.73                                                             
C 20.13  2.32 30.12                                                             
C 20.13  2.32 43.51                                                             
C 20.13  2.32 56.89                                                             
C 24.16  0.00  3.35                                                             
C 24.16  0.00 16.73                                                             
C 24.16  0.00 30.12                                                             
C 24.16  0.00 43.51                                                             
C 24.16  0.00 56.89                                                             
C  4.03 16.27  3.35                                                             
C  4.03 16.27 16.73                                                             
C  4.03 16.27 30.12                                                             
C  4.03 16.27 43.51                                                             
C  4.03 16.27 56.89                                                             
C  8.05 13.95  3.35                                                             
C  8.05 13.95 16.73                                                             
C  8.05 13.95 30.12                                                             
C  8.05 13.95 43.51                                                             
C  8.05 13.95 56.89                                                             
C 12.08 11.62  3.35                                                             
C 12.08 11.62 16.73                                                             
C 12.08 11.62 30.12                                                             
C 12.08 11.62 43.51                                                             
C 12.08 11.62 56.89                                                             
C 16.10  9.30  3.35                                                             
C 16.10  9.30 16.73                                                             
C 16.10  9.30 30.12                                                             
C 16.10  9.30 43.51                                                             
C 16.10  9.30 56.89                                                             
C 20.13  6.97  3.35                                                             
C 20.13  6.97 16.73                                                             
C 20.13  6.97 30.12                                                             
C 20.13  6.97 43.51                                                             
C 20.13  6.97 56.89                                                             
C 24.16  4.65  3.35                                                             
C 24.16  4.65 16.73                                                             
C 24.16  4.65 30.12                                                             
C 24.16  4.65 43.51                                                             
C 24.16  4.65 56.89                                                             
C 28.18  2.32  3.35                                                             
C 28.18  2.32 16.73                                                             
C 28.18  2.32 30.12                                                             
C 28.18  2.32 43.51                                                             
C 28.18  2.32 56.89                                                             
C 12.08 16.27  3.35                                                             
C 12.08 16.27 16.73                                                             
C 12.08 16.27 30.12                                                             
C 12.08 16.27 43.51                                                             
C 12.08 16.27 56.89                                                             
C 16.10 13.95  3.35                                                             
C 16.10 13.95 16.73                                                             
C 16.10 13.95 30.12                                                             
C 16.10 13.95 43.51                                                             
C 16.10 13.95 56.89                                                             
C 20.13 11.62  3.35                                                             
C 20.13 11.62 16.73                                                             
C 20.13 11.62 30.12                                                             
C 20.13 11.62 43.51                                                             
C 20.13 11.62 56.89                                                             
C 24.16  9.30  3.35                                                             
C 24.16  9.30 16.73                                                             
C 24.16  9.30 30.12                                                             
C 24.16  9.30 43.51                                                             
C 24.16  9.30 56.89                                                             
C 28.18  6.97  3.35                                                             
C 28.18  6.97 16.73                                                             
C 28.18  6.97 30.12                                                             
C 28.18  6.97 43.51                                                             
C 28.18  6.97 56.89                                                             
C 20.13 16.27  3.35                                                             
C 20.13 16.27 16.73                                                             
C 20.13 16.27 30.12                                                             
C 20.13 16.27 43.51                                                             
C 20.13 16.27 56.89                                                             
C 24.16 13.95  3.35                                                             
C 24.16 13.95 16.73                                                             
C 24.16 13.95 30.12                                                             
C 24.16 13.95 43.51                                                             
C 24.16 13.95 56.89                                                             
C 28.18 11.62  3.35                                                             
C 28.18 11.62 16.73                                                             
C 28.18 11.62 30.12                                                             
C 28.18 11.62 43.51                                                             
C 28.18 11.62 56.89                                                             
C 28.18 16.27  3.35                                                             
C 28.18 16.27 16.73                                                             
C 28.18 16.27 30.12                                                             
C 28.18 16.27 43.51                                                             
C 28.18 16.27 56.89                                                             
C  0.00  0.00 10.04                                                             
C  0.00  0.00 23.43                                                             
C  0.00  0.00 36.81                                                             
C  0.00  0.00 50.20                                                             
C  0.00  0.00 63.58                                                             
C  0.00  4.65 10.04                                                             
C  0.00  4.65 23.43                                                             
C  0.00  4.65 36.81                                                             
C  0.00  4.65 50.20                                                             
C  0.00  4.65 63.58                                                             
C  4.03  2.32 10.04                                                             
C  4.03  2.32 23.43                                                             
C  4.03  2.32 36.81                                                             
C  4.03  2.32 50.20                                                             
C  4.03  2.32 63.58                                                             
C  8.05  0.00 10.04                                                             
C  8.05  0.00 23.43                                                             
C  8.05  0.00 36.81                                                             
C  8.05  0.00 50.20                                                             
C  8.05  0.00 63.58                                                             
C  0.00  9.30 10.04                                                             
C  0.00  9.30 23.43                                                             
C  0.00  9.30 36.81                                                             
C  0.00  9.30 50.20                                                             
C  0.00  9.30 63.58                                                             
C  4.03  6.97 10.04                                                             
C  4.03  6.97 23.43                                                             
C  4.03  6.97 36.81                                                             
C  4.03  6.97 50.20                                                             
C  4.03  6.97 63.58                                                             
C  8.05  4.65 10.04                                                             
C  8.05  4.65 23.43                                                             
C  8.05  4.65 36.81                                                             
C  8.05  4.65 50.20                                                             
C  8.05  4.65 63.58                                                             
C 12.08  2.32 10.04                                                             
C 12.08  2.32 23.43                                                             
C 12.08  2.32 36.81                                                             
C 12.08  2.32 50.20                                                             
C 12.08  2.32 63.58                                                             
C 16.10  0.00 10.04                                                             
C 16.10  0.00 23.43                                                             
C 16.10  0.00 36.81                                                             
C 16.10  0.00 50.20                                                             
C 16.10  0.00 63.58                                                             
C  0.00 13.95 10.04                                                             
C  0.00 13.95 23.43                                                             
C  0.00 13.95 36.81                                                             
C  0.00 13.95 50.20                                                             
C  0.00 13.95 63.58                                                             
C  4.03 11.62 10.04                                                             
C  4.03 11.62 23.43                                                             
C  4.03 11.62 36.81                                                             
C  4.03 11.62 50.20                                                             
C  4.03 11.62 63.58                                                             
C  8.05  9.30 10.04                                                             
C  8.05  9.30 23.43                                                             
C  8.05  9.30 36.81                                                             
C  8.05  9.30 50.20                                                             
C  8.05  9.30 63.58                                                             
C 12.08  6.97 10.04                                                             
C 12.08  6.97 23.43                                                             
C 12.08  6.97 36.81                                                             
C 12.08  6.97 50.20                                                             
C 12.08  6.97 63.58                                                             
C 16.10  4.65 10.04                                                             
C 16.10  4.65 23.43                                                             
C 16.10  4.65 36.81                                                             
C 16.10  4.65 50.20                                                             
C 16.10  4.65 63.58                                                             
C 20.13  2.32 10.04                                                             
C 20.13  2.32 23.43                                                             
C 20.13  2.32 36.81                                                             
C 20.13  2.32 50.20                                                             
C 20.13  2.32 63.58                                                             
C 24.16  0.00 10.04                                                             
C 24.16  0.00 23.43                                                             
C 24.16  0.00 36.81                                                             
C 24.16  0.00 50.20                                                             
C 24.16  0.00 63.58                                                             
C  4.03 16.27 10.04                                                             
C  4.03 16.27 23.43                                                             
C  4.03 16.27 36.81                                                             
C  4.03 16.27 50.20                                                             
C  4.03 16.27 63.58                                                             
C  8.05 13.95 10.04                                                             
C  8.05 13.95 23.43                                                             
C  8.05 13.95 36.81                                                             
C  8.05 13.95 50.20                                                             
C  8.05 13.95 63.58                                                             
C 12.08 11.62 10.04                                                             
C 12.08 11.62 23.43                                                             
C 12.08 11.62 36.81                                                             
C 12.08 11.62 50.20                                                             
C 12.08 11.62 63.58                                                             
C 16.10  9.30 10.04                                                             
C 16.10  9.30 23.43                                                             
C 16.10  9.30 36.81                                                             
C 16.10  9.30 50.20                                                             
C 16.10  9.30 63.58                                                             
C 20.13  6.97 10.04                                                             
C 20.13  6.97 23.43                                                             
C 20.13  6.97 36.81                                                             
C 20.13  6.97 50.20                                                             
C 20.13  6.97 63.58                                                             
C 24.16  4.65 10.04                                                             
C 24.16  4.65 23.43                                                             
C 24.16  4.65 36.81                                                             
C 24.16  4.65 50.20                                                             
C 24.16  4.65 63.58                                                             
C 28.18  2.32 10.04                                                             
C 28.18  2.32 23.43                                                             
C 28.18  2.32 36.81                                                             
C 28.18  2.32 50.20                                                             
C 28.18  2.32 63.58                                                             
C 12.08 16.27 10.04                                                             
C 12.08 16.27 23.43                                                             
C 12.08 16.27 36.81                                                             
C 12.08 16.27 50.20                                                             
C 12.08 16.27 63.58                                                             
C 16.10 13.95 10.04                                                             
C 16.10 13.95 23.43                                                             
C 16.10 13.95 36.81                                                             
C 16.10 13.95 50.20                                                             
C 16.10 13.95 63.58                                                             
C 20.13 11.62 10.04                                                             
C 20.13 11.62 23.43                                                             
C 20.13 11.62 36.81                                                             
C 20.13 11.62 50.20                                                             
C 20.13 11.62 63.58                                                             
C 24.16  9.30 10.04                                                             
C 24.16  9.30 23.43                                                             
C 24.16  9.30 36.81                                                             
C 24.16  9.30 50.20                                                             
C 24.16  9.30 63.58                                                             
C 28.18  6.97 10.04                                                             
C 28.18  6.97 23.43                                                             
C 28.18  6.97 36.81                                                             
C 28.18  6.97 50.20                                                             
C 28.18  6.97 63.58                                                             
C 20.13 16.27 10.04                                                             
C 20.13 16.27 23.43                                                             
C 20.13 16.27 36.81                                                             
C 20.13 16.27 50.20                                                             
C 20.13 16.27 63.58                                                             
C 24.16 13.95 10.04                                                             
C 24.16 13.95 23.43                                                             
C 24.16 13.95 36.81                                                             
C 24.16 13.95 50.20                                                             
C 24.16 13.95 63.58                                                             
C 28.18 11.62 10.04                                                             
C 28.18 11.62 23.43                                                             
C 28.18 11.62 36.81                                                             
C 28.18 11.62 50.20                                                             
C 28.18 11.62 63.58                                                             
C 28.18 16.27 10.04                                                             
C 28.18 16.27 23.43                                                             
C 28.18 16.27 36.81                                                             
C 28.18 16.27 50.20                                                             
C 28.18 16.27 63.58                                                             
C  1.34  2.32  3.35                                                             
C  1.34  2.32 16.73                                                             
C  1.34  2.32 30.12                                                             
C  1.34  2.32 43.51                                                             
C  1.34  2.32 56.89                                                             
C  5.37  0.00  3.35                                                             
C  5.37  0.00 16.73                                                             
C  5.37  0.00 30.12                                                             
C  5.37  0.00 43.51                                                             
C  5.37  0.00 56.89                                                             
C  1.34  6.97  3.35                                                             
C  1.34  6.97 16.73                                                             
C  1.34  6.97 30.12                                                             
C  1.34  6.97 43.51                                                             
C  1.34  6.97 56.89                                                             
C  5.37  4.65  3.35                                                             
C  5.37  4.65 16.73                                                             
C  5.37  4.65 30.12                                                             
C  5.37  4.65 43.51                                                             
C  5.37  4.65 56.89                                                             
C  9.39  2.32  3.35                                                             
C  9.39  2.32 16.73                                                             
C  9.39  2.32 30.12                                                             
C  9.39  2.32 43.51                                                             
C  9.39  2.32 56.89                                                             
C 13.42  0.00  3.35                                                             
C 13.42  0.00 16.73                                                             
C 13.42  0.00 30.12                                                             
C 13.42  0.00 43.51                                                             
C 13.42  0.00 56.89                                                             
C  1.34 11.62  3.35                                                             
C  1.34 11.62 16.73                                                             
C  1.34 11.62 30.12                                                             
C  1.34 11.62 43.51                                                             
C  1.34 11.62 56.89                                                             
C  5.37  9.30  3.35                                                             
C  5.37  9.30 16.73                                                             
C  5.37  9.30 30.12                                                             
C  5.37  9.30 43.51                                                             
C  5.37  9.30 56.89                                                             
C  9.39  6.97  3.35                                                             
C  9.39  6.97 16.73                                                             
C  9.39  6.97 30.12                                                             
C  9.39  6.97 43.51                                                             
C  9.39  6.97 56.89                                                             
C 13.42  4.65  3.35                                                             
C 13.42  4.65 16.73                                                             
C 13.42  4.65 30.12                                                             
C 13.42  4.65 43.51                                                             
C 13.42  4.65 56.89                                                             
C 17.45  2.32  3.35                                                             
C 17.45  2.32 16.73                                                             
C 17.45  2.32 30.12                                                             
C 17.45  2.32 43.51                                                             
C 17.45  2.32 56.89                                                             
C 21.47  0.00  3.35                                                             
C 21.47  0.00 16.73                                                             
C 21.47  0.00 30.12                                                             
C 21.47  0.00 43.51                                                             
C 21.47  0.00 56.89                                                             
C  1.34 16.27  3.35                                                             
C  1.34 16.27 16.73                                                             
C  1.34 16.27 30.12                                                             
C  1.34 16.27 43.51                                                             
C  1.34 16.27 56.89                                                             
C  5.37 13.95  3.35                                                             
C  5.37 13.95 16.73                                                             
C  5.37 13.95 30.12                                                             
C  5.37 13.95 43.51                                                             
C  5.37 13.95 56.89                                                             
C  9.39 11.62  3.35                                                             
C  9.39 11.62 16.73                                                             
C  9.39 11.62 30.12                                                             
C  9.39 11.62 43.51                                                             
C  9.39 11.62 56.89                                                             
C 13.42  9.30  3.35                                                             
C 13.42  9.30 16.73                                                             
C 13.42  9.30 30.12                                                             
C 13.42  9.30 43.51                                                             
C 13.42  9.30 56.89                                                             
C 17.45  6.97  3.35                                                             
C 17.45  6.97 16.73                                                             
C 17.45  6.97 30.12                                                             
C 17.45  6.97 43.51                                                             
C 17.45  6.97 56.89                                                             
C 21.47  4.65  3.35                                                             
C 21.47  4.65 16.73                                                             
C 21.47  4.65 30.12                                                             
C 21.47  4.65 43.51                                                             
C 21.47  4.65 56.89                                                             
C 25.50  2.32  3.35                                                             
C 25.50  2.32 16.73                                                             
C 25.50  2.32 30.12                                                             
C 25.50  2.32 43.51                                                             
C 25.50  2.32 56.89                                                             
C 29.52  0.00  3.35                                                             
C 29.52  0.00 16.73                                                             
C 29.52  0.00 30.12                                                             
C 29.52  0.00 43.51                                                             
C 29.52  0.00 56.89                                                             
C  9.39 16.27  3.35                                                             
C  9.39 16.27 16.73                                                             
C  9.39 16.27 30.12                                                             
C  9.39 16.27 43.51                                                             
C  9.39 16.27 56.89                                                             
C 13.42 13.95  3.35                                                             
C 13.42 13.95 16.73                                                             
C 13.42 13.95 30.12                                                             
C 13.42 13.95 43.51                                                             
C 13.42 13.95 56.89                                                             
C 17.45 11.62  3.35                                                             
C 17.45 11.62 16.73                                                             
C 17.45 11.62 30.12                                                             
C 17.45 11.62 43.51                                                             
C 17.45 11.62 56.89                                                             
C 21.47  9.30  3.35                                                             
C 21.47  9.30 16.73                                                             
C 21.47  9.30 30.12                                                             
C 21.47  9.30 43.51                                                             
C 21.47  9.30 56.89                                                             
C 25.50  6.97  3.35                                                             
C 25.50  6.97 16.73                                                             
C 25.50  6.97 30.12                                                             
C 25.50  6.97 43.51                                                             
C 25.50  6.97 56.89                                                             
C 29.52  4.65  3.35                                                             
C 29.52  4.65 16.73                                                             
C 29.52  4.65 30.12                                                             
C 29.52  4.65 43.51                                                             
C 29.52  4.65 56.89                                                             
C 17.45 16.27  3.35                                                             
C 17.45 16.27 16.73                                                             
C 17.45 16.27 30.12                                                             
C 17.45 16.27 43.51                                                             
C 17.45 16.27 56.89                                                             
C 21.47 13.95  3.35                                                             
C 21.47 13.95 16.73                                                             
C 21.47 13.95 30.12                                                             
C 21.47 13.95 43.51                                                             
C 21.47 13.95 56.89                                                             
C 25.50 11.62  3.35                                                             
C 25.50 11.62 16.73                                                             
C 25.50 11.62 30.12                                                             
C 25.50 11.62 43.51                                                             
C 25.50 11.62 56.89                                                             
C 29.52  9.30  3.35                                                             
C 29.52  9.30 16.73                                                             
C 29.52  9.30 30.12                                                             
C 29.52  9.30 43.51                                                             
C 29.52  9.30 56.89                                                             
C 25.50 16.27  3.35                                                             
C 25.50 16.27 16.73                                                             
C 25.50 16.27 30.12                                                             
C 25.50 16.27 43.51                                                             
C 25.50 16.27 56.89                                                             
C 29.52 13.95  3.35                                                             
C 29.52 13.95 16.73                                                             
C 29.52 13.95 30.12                                                             
C 29.52 13.95 43.51                                                             
C 29.52 13.95 56.89                                                             
C  2.68  0.00 10.04                                                             
C  2.68  0.00 23.43                                                             
C  2.68  0.00 36.81                                                             
C  2.68  0.00 50.20                                                             
C  2.68  0.00 63.58                                                             
C  2.68  4.65 10.04                                                             
C  2.68  4.65 23.43                                                             
C  2.68  4.65 36.81                                                             
C  2.68  4.65 50.20                                                             
C  2.68  4.65 63.58                                                             
C  6.71  2.32 10.04                                                             
C  6.71  2.32 23.43                                                             
C  6.71  2.32 36.81                                                             
C  6.71  2.32 50.20                                                             
C  6.71  2.32 63.58                                                             
C 10.74  0.00 10.04                                                             
C 10.74  0.00 23.43                                                             
C 10.74  0.00 36.81                                                             
C 10.74  0.00 50.20                                                             
C 10.74  0.00 63.58                                                             
C  2.68  9.30 10.04                                                             
C  2.68  9.30 23.43                                                             
C  2.68  9.30 36.81                                                             
C  2.68  9.30 50.20                                                             
C  2.68  9.30 63.58                                                             
C  6.71  6.97 10.04                                                             
C  6.71  6.97 23.43                                                             
C  6.71  6.97 36.81                                                             
C  6.71  6.97 50.20                                                             
C  6.71  6.97 63.58                                                             
C 10.74  4.65 10.04                                                             
C 10.74  4.65 23.43                                                             
C 10.74  4.65 36.81                                                             
C 10.74  4.65 50.20                                                             
C 10.74  4.65 63.58                                                             
C 14.76  2.32 10.04                                                             
C 14.76  2.32 23.43                                                             
C 14.76  2.32 36.81                                                             
C 14.76  2.32 50.20                                                             
C 14.76  2.32 63.58                                                             
C 18.79  0.00 10.04                                                             
C 18.79  0.00 23.43                                                             
C 18.79  0.00 36.81                                                             
C 18.79  0.00 50.20                                                             
C 18.79  0.00 63.58                                                             
C  2.68 13.95 10.04                                                             
C  2.68 13.95 23.43                                                             
C  2.68 13.95 36.81                                                             
C  2.68 13.95 50.20                                                             
C  2.68 13.95 63.58                                                             
C  6.71 11.62 10.04                                                             
C  6.71 11.62 23.43                                                             
C  6.71 11.62 36.81                                                             
C  6.71 11.62 50.20                                                             
C  6.71 11.62 63.58                                                             
C 10.74  9.30 10.04                                                             
C 10.74  9.30 23.43                                                             
C 10.74  9.30 36.81                                                             
C 10.74  9.30 50.20                                                             
C 10.74  9.30 63.58                                                             
C 14.76  6.97 10.04                                                             
C 14.76  6.97 23.43                                                             
C 14.76  6.97 36.81                                                             
C 14.76  6.97 50.20                                                             
C 14.76  6.97 63.58                                                             
C 18.79  4.65 10.04                                                             
C 18.79  4.65 23.43                                                             
C 18.79  4.65 36.81                                                             
C 18.79  4.65 50.20                                                             
C 18.79  4.65 63.58                                                             
C 22.81  2.32 10.04                                                             
C 22.81  2.32 23.43                                                             
C 22.81  2.32 36.81                                                             
C 22.81  2.32 50.20                                                             
C 22.81  2.32 63.58                                                             
C 26.84  0.00 10.04                                                             
C 26.84  0.00 23.43                                                             
C 26.84  0.00 36.81                                                             
C 26.84  0.00 50.20                                                             
C 26.84  0.00 63.58                                                             
C  6.71 16.27 10.04                                                             
C  6.71 16.27 23.43                                                             
C  6.71 16.27 36.81                                                             
C  6.71 16.27 50.20                                                             
C  6.71 16.27 63.58                                                             
C 10.74 13.95 10.04                                                             
C 10.74 13.95 23.43                                                             
C 10.74 13.95 36.81                                                             
C 10.74 13.95 50.20                                                             
C 10.74 13.95 63.58                                                             
C 14.76 11.62 10.04                                                             
C 14.76 11.62 23.43                                                             
C 14.76 11.62 36.81                                                             
C 14.76 11.62 50.20                                                             
C 14.76 11.62 63.58                                                             
C 18.79  9.30 10.04                                                             
C 18.79  9.30 23.43                                                             
C 18.79  9.30 36.81                                                             
C 18.79  9.30 50.20                                                             
C 18.79  9.30 63.58                                                             
C 22.81  6.97 10.04                                                             
C 22.81  6.97 23.43                                                             
C 22.81  6.97 36.81                                                             
C 22.81  6.97 50.20                                                             
C 22.81  6.97 63.58                                                             
C 26.84  4.65 10.04                                                             
C 26.84  4.65 23.43                                                             
C 26.84  4.65 36.81                                                             
C 26.84  4.65 50.20                                                             
C 26.84  4.65 63.58                                                             
C 30.86  2.32 10.04                                                             
C 30.86  2.32 23.43                                                             
C 30.86  2.32 36.81                                                             
C 30.86  2.32 50.20                                                             
C 30.86  2.32 63.58                                                             
C 14.76 16.27 10.04                                                             
C 14.76 16.27 23.43                                                             
C 14.76 16.27 36.81                                                             
C 14.76 16.27 50.20                                                             
C 14.76 16.27 63.58                                                             
C 18.79 13.95 10.04                                                             
C 18.79 13.95 23.43                                                             
C 18.79 13.95 36.81                                                             
C 18.79 13.95 50.20                                                             
C 18.79 13.95 63.58                                                             
C 22.81 11.62 10.04                                                             
C 22.81 11.62 23.43                                                             
C 22.81 11.62 36.81                                                             
C 22.81 11.62 50.20                                                             
C 22.81 11.62 63.58                                                             
C 26.84  9.30 10.04                                                             
C 26.84  9.30 23.43                                                             
C 26.84  9.30 36.81                                                             
C 26.84  9.30 50.20                                                             
C 26.84  9.30 63.58                                                             
C 30.86  6.97 10.04                                                             
C 30.86  6.97 23.43                                                             
C 30.86  6.97 36.81                                                             
C 30.86  6.97 50.20                                                             
C 30.86  6.97 63.58                                                             
C 22.81 16.27 10.04                                                             
C 22.81 16.27 23.43                                                             
C 22.81 16.27 36.81                                                             
C 22.81 16.27 50.20                                                             
C 22.81 16.27 63.58                                                             
C 26.84 13.95 10.04                                                             
C 26.84 13.95 23.43                                                             
C 26.84 13.95 36.81                                                             
C 26.84 13.95 50.20                                                             
C 26.84 13.95 63.58                                                             
C 30.86 11.62 10.04                                                             
C 30.86 11.62 23.43                                                             
C 30.86 11.62 36.81                                                             
C 30.86 11.62 50.20                                                             
C 30.86 11.62 63.58                                                             
C 30.86 16.27 10.04                                                             
C 30.86 16.27 23.43                                                             
C 30.86 16.27 36.81                                                             
C 30.86 16.27 50.20                                                             
C 30.86 16.27 63.58                                                             
%ENDBLOCK POSITIONS_ABS                                                         

--------------------------------------------------------------------------------
-------------------------------- END INPUT FILE --------------------------------
--------------------------------------------------------------------------------


 
<<<<<<<<<<<<<<<<<<<<<<<<<<<<<<<<< Full system >>>>>>>>>>>>>>>>>>>>>>>>>>>>>>>>>>
<<<<<<<<<<<<<<<<<<<<<<<<<<< PAW Dataset information >>>>>>>>>>>>>>>>>>>>>>>>>>>
File: ~/pp/paw/c_pbe_abinit.paw; rc = 1.25 bohr; shape type =  3; rshape = 1.25 bohr;
  Atomic number:  6;  ionic charge:  4.000000
    Partial Wave 1: l = 0
    Partial Wave 2: l = 0
    Partial Wave 3: l = 1
    Partial Wave 4: l = 1
  Core charge supplied for Nonlinear Core Corrections
<<<<<<<<<<<<<<<<<<<<<<<<<<<<<<<<<<<<<<< >>>>>>>>>>>>>>>>>>>>>>>>>>>>>>>>>>>>>>>

-------------------------- Atom counting information ---------------------------
Symbol    Natoms    Nngwfs    Nprojs
  C        640      2560      5120
.......   ......    ......    ......
Totals:    640      2560      5120
--------------------------------------------------------------------------------

=============================== PSINC grid sizes ===============================
                      Simulation cell:   63 x  35 x 132
                              FFT-box:   63 x  35 x 117
                                  PPD:    7 x   5 x   1
Grid space d1=  0.511269841270a0 (KE cutoff=  29.06054Eh = 790.77748eV)
Grid space d2=  0.531142857143a0 (KE cutoff=  26.92659Eh = 732.70972eV)
Grid space d3=  0.507045454545a0 (KE cutoff=  29.54678Eh = 804.00890eV)
================================================================================
  
WARNING in cell_grid_distribute:
Average of less than one 23-slab per node, so workload cannot be
equally balanced between nodes.

********************* Fourier parallelisation information **********************
       Coarse grid (whole simulation cell) dimensions:     63    35   132
          Real-space ('12') slabs/node (min max mean):      3     4     3
         Recip-space ('23') slabs/node (min max mean):      0     1     0
********************************************************************************

********************* Fourier parallelisation information **********************
       Double grid (whole simulation cell) dimensions:    126    70   264
          Real-space ('12') slabs/node (min max mean):      6     7     6
         Recip-space ('23') slabs/node (min max mean):      1     2     1
********************************************************************************

Atom SCF Calculation for C  : Z (AE atom) =   6 : Z (PS atom) =   4
Config String: 2s2 2p2
Orbitals (num,occ):  2     2.00 2.00
Orbitals   (num,l):  2        0    1
Real-space Grid (nr,dr,rmax): 1293    0.0069659443    9.0000000000
Spherical Bessel Basis (nsws,lmax,cutoff):   37    2  161.4736382572
Confining potential (l,width,scale):  0    3.0000000000  100.0000000000
Confining potential (l,width,scale):  1    3.0000000000  100.0000000000
  1         -5.4795203654   -1.3252209296    4.5135257941   -1.6370402169
  2         -5.4480859746   -1.4027979239    4.4305951748   -1.6109819005
  3         -5.4553164790   -1.4212834043    4.4102618304   -1.6059039466
  4         -5.4627841133   -1.4247091338    4.4065122085   -1.6052907585
  5         -5.4662306655   -1.4266814823    4.4043715292   -1.6049352647
  6         -5.4679520247   -1.4277352742    4.4032348712   -1.6047493439
  7         -5.4688359568   -1.4282868030    4.4026432892   -1.6046541449
  8         -5.4692951245   -1.4285734530    4.4023374832   -1.6046056242
  9         -5.4695349887   -1.4287220785    4.4021797781   -1.6045809101
 10         -5.4696606791   -1.4287991022    4.4020984905   -1.6045683155
 11         -5.4697266650   -1.4288390363    4.4020565747   -1.6045618912
 12         -5.4697613504   -1.4288597596    4.4020349416   -1.6045586107
 13         -5.4697795998   -1.4288705262    4.4020237638   -1.6045569335
 14         -5.4697892089   -1.4288761271    4.4020179806   -1.6045560749
 15         -5.4697942720   -1.4288790448    4.4020149844   -1.6045556348
 16         -5.4697969415   -1.4288805668    4.4020134298   -1.6045554088
 17         -5.4697983498   -1.4288813619    4.4020126220   -1.6045552927
 18         -5.4697990933   -1.4288817779    4.4020122017   -1.6045552329
 19         -5.4697994860   -1.4288819957    4.4020119826   -1.6045552021
 20         -5.4697996936   -1.4288821100    4.4020118683   -1.6045551862
 21         -5.4697998034   -1.4288821701    4.4020118085   -1.6045551780
 22         -5.4697998614   -1.4288822017    4.4020117772   -1.6045551737
Atom SCF converged after  22 iterations to a total energy of     -5.46979986

Determining parallel strategy ...
... using space-filling curve
... NGWF load balancing: max     64;  min     64;  average     64
... Projector load balancing: max    128;  min    128;  average    128
... done
Calculating Ewald energy ...
              Ewald: real-space energy =    9485.205062
        Ewald: reciprocal-space energy =       0.175253
         Ewald: (sum_charge)**2 Energy =   11111.165858
         Ewald: (sum_charge**2) Energy =     878.414789
                          Ewald Energy =   -2504.200333
Basis initialisation ...... NGWF spheres initialised
... Projector spheres initialised
... NGWF tight boxes initialised
... Projector tight boxes initialised
... Tight-boxes gathered
... NGWF basis size (local,global):     693556  27898848
... PAW projector initialisation
... done

============================= Charge Augmentation ==============================
                           Aug box size:   11 x  11 x  11
================================================================================

========================== Sparse matrix information ===========================
                        Overlap matrix filling:  42.19%
                        Density kernel filling: 100.00%
              NGWF-Proj overlap matrix filling:  12.19%
                    Aug Overlap matrix filling:  47.03%
                    Hamiltonian matrix filling:  47.03%
                  NGWF diagonal matrix filling:   0.16%
                             KS matrix filling: 100.00% 
                           KSKS matrix filling: 100.00% 
================================================================================

Sparse matrix initialisation ... done
NGWF initialisation ...... done
============ Calculation of NGWF S^-1 using Hotelling algorithm ================ 
         Iteration  |  Frobenius norm and Maximum abs value    (of I-S*S_n^-1)   
               1       0.49054243E+02     0.97591158E+00
               2       0.47823407E+02     0.95366720E+00
               3       0.45979341E+02     0.91378495E+00
               4       0.43591812E+02     0.84784135E+00
               5       0.40734443E+02     0.75010167E+00
               6       0.37407014E+02     0.67947859E+00
               7       0.33928428E+02     0.63155100E+00
               8       0.30604906E+02     0.59124028E+00
               9       0.27056848E+02     0.54728470E+00
              10       0.22571861E+02     0.47850123E+00
              11       0.16720999E+02     0.36919796E+00
              12       0.99553400E+01     0.22486154E+00
              13       0.40348645E+01     0.88973481E-01
              14       0.79472062E+00     0.16011269E-01
              15       0.37115763E-01     0.64048851E-03
              16       0.10612730E-03     0.13454322E-05
              17       0.13229927E-08     0.10097811E-10
              18       0.74309870E-13     0.42188475E-14
================================================================================
Calculating core density ...
================================= Core Density =================================
               Core den box size:   21 x  21 x  21
================================================================================
 ... done
Up spin density kernel initialisation ...... done

Writing density kernel to file "3.5418184_GO_manual_4x64graphite.dkn" ... done

>>> Optimising kernel for current NGWFs:

--------------------------- Ensemble-DFT optimisation --------------------------
Running ScaLAPACK on   40 processor(s).

--------------------------------------------------------------------------------
  Iter                              Commutator    Free_energy(A=E-TS)     DeltaA
#    0                          0.000034958009   -3649.88350034042742  -3.65E+03

Step                       =       0.381966011250
Energy                     =   -3649.883471698766
Entropy (-TS)              =      -0.000028641665
Free energy (A=E-TS)       =   -3649.883500340427
Est. 0K Energy 0.5*(E+A)   =   -3649.883486019597
Residual Non-orthogonality =       0.000000000000
Residual N_electrons       =       0.000000000003

Spin          Integrated_Ne            Fermi_level     Delta_Fermi_level
   1      2559.999999999983         0.186325406214              1.86E-01

                           Spin 1          
     Orb      H-eigenvalues     Occupancies
       1 |    -0.5377971931    1.0000000000 | 
                          ------
    1276 |     0.1518509374    0.9999812852 | 
    1277 |     0.1524610120    0.9999773092 | 
    1278 |     0.1524786579    0.9999771825 | 
    1279 |     0.1528006120    0.9999747408 | 
    1280 |     0.1534262401    0.9999692237 | 
                 - Gap at zero temperature -
    1281 |     0.2218534352    0.0000134185 | 
    1282 |     0.2218637304    0.0000133749 | 
    1283 |     0.2219011261    0.0000132179 | 
    1284 |     0.2220569776    0.0000125832 | 
    1285 |     0.2220665047    0.0000125454 | 
                          ------
    2560 |     1.0205392044    0.0000000000 | 

                       |  Abs_value |  Threshold | Converged
     Delta_Free_energy |   3.65E+03 |   1.00E-06 |        No
     Delta_Energy      |   3.65E+03 |   1.00E-04 |        No
     Delta_Entropy     |   2.86E-05 |   1.00E-04 |       Yes
     Commutator        |   3.50E-05 |   1.00E-05 |        No
     Delta_Fermi_level |   1.86E-01 |   1.00E-03 |        No

  Line search of the free energy minimum:
  Step_type        Step             Free_energy   Predicted_free_energy
.   Initial    0.000000    -3649.88350034042742
.    Trial1    0.381966    -3649.88478541355062
.    Trial2    0.618034    -3649.88494027626939
. Quadratic    0.574849    -3649.88494828631246    -3649.88494844882098

--------------------------------------------------------------------------------
  Iter                              Commutator    Free_energy(A=E-TS)     DeltaA
#    1                          0.000019874382   -3649.88494828631246  -1.45E-03

Step                       =       0.574849067990
Energy                     =   -3649.884920114321
Entropy (-TS)              =      -0.000028171992
Free energy (A=E-TS)       =   -3649.884948286312
Est. 0K Energy 0.5*(E+A)   =   -3649.884934200317
Residual Non-orthogonality =       0.000000000000
Residual N_electrons       =       0.000000000001

Spin          Integrated_Ne            Fermi_level     Delta_Fermi_level
   1      2559.999999999995         0.186588350951              2.63E-04

                           Spin 1          
     Orb      H-eigenvalues     Occupancies
       1 |    -0.5390484345    1.0000000000 | 
                          ------
    1276 |     0.1521405813    0.9999811267 | 
    1277 |     0.1526009551    0.9999781737 | 
    1278 |     0.1526161366    0.9999780688 | 
    1279 |     0.1530980298    0.9999744643 | 
    1280 |     0.1535714449    0.9999703469 | 
                 - Gap at zero temperature -
    1281 |     0.2221195002    0.0000134053 | 
    1282 |     0.2221272661    0.0000133724 | 
    1283 |     0.2221735911    0.0000131782 | 
    1284 |     0.2223151196    0.0000126023 | 
    1285 |     0.2223189590    0.0000125870 | 
                          ------
    2560 |     1.0207580445    0.0000000000 | 

                       |  Abs_value |  Threshold | Converged
     Delta_Free_energy |   1.45E-03 |   1.00E-06 |        No
     Delta_Energy      |   1.45E-03 |   1.00E-04 |        No
     Delta_Entropy     |   4.70E-07 |   1.00E-04 |       Yes
     Commutator        |   1.99E-05 |   1.00E-05 |        No
     Delta_Fermi_level |   2.63E-04 |   1.00E-03 |       Yes

  Line search of the free energy minimum:
  Step_type        Step             Free_energy   Predicted_free_energy
.   Initial    0.000000    -3649.88494828631246
.    Trial1    0.574849    -3649.88474123887363
.    Trial2    0.219573    -3649.88529265856914
. Quadratic    0.254249    -3649.88529912102331    -3649.88529918569020

--------------------------------------------------------------------------------
  Iter                              Commutator    Free_energy(A=E-TS)     DeltaA
#    2                          0.000010960835   -3649.88529912102331  -3.51E-04

Step                       =       0.254248756344
Energy                     =   -3649.885271060025
Entropy (-TS)              =      -0.000028061392
Free energy (A=E-TS)       =   -3649.885299121023
Est. 0K Energy 0.5*(E+A)   =   -3649.885285090524
Residual Non-orthogonality =       0.000000000000
Residual N_electrons       =       0.000000000394

Spin          Integrated_Ne            Fermi_level     Delta_Fermi_level
   1      2559.999999997886         0.186631957593              4.36E-05

                           Spin 1          
     Orb      H-eigenvalues     Occupancies
       1 |    -0.5392887921    1.0000000000 | 
                          ------
    1276 |     0.1521443332    0.9999813628 | 
    1277 |     0.1526515521    0.9999781254 | 
    1278 |     0.1526688882    0.9999780054 | 
    1279 |     0.1530992203    0.9999748040 | 
    1280 |     0.1536216131    0.9999702854 | 
                 - Gap at zero temperature -
    1281 |     0.2221921888    0.0000132827 | 
    1282 |     0.2222007852    0.0000132467 | 
    1283 |     0.2222448677    0.0000130636 | 
    1284 |     0.2223933374    0.0000124653 | 
    1285 |     0.2223975260    0.0000124488 | 
                          ------
    2560 |     1.0207857032    0.0000000000 | 

                       |  Abs_value |  Threshold | Converged
     Delta_Free_energy |   3.51E-04 |   1.00E-06 |        No
     Delta_Energy      |   3.51E-04 |   1.00E-04 |        No
     Delta_Entropy     |   1.11E-07 |   1.00E-04 |       Yes
     Commutator        |   1.10E-05 |   1.00E-05 |        No
     Delta_Fermi_level |   4.36E-05 |   1.00E-03 |       Yes

  Line search of the free energy minimum:
  Step_type        Step             Free_energy   Predicted_free_energy
.   Initial    0.000000    -3649.88529912102331
.    Trial1    0.254249    -3649.88539823399606
.    Trial2    0.539100    -3649.88539108868872
. Quadratic    0.380378    -3649.88541046105274    -3649.88541047788567

--------------------------------------------------------------------------------
  Iter                              Commutator    Free_energy(A=E-TS)     DeltaA
#    3                          0.000007572483   -3649.88541046105274  -1.11E-04

Step                       =       0.380378352798
Energy                     =   -3649.885382520531
Entropy (-TS)              =      -0.000027940436
Free energy (A=E-TS)       =   -3649.885410461053
Est. 0K Energy 0.5*(E+A)   =   -3649.885396490792
Residual Non-orthogonality =       0.000000000000
Residual N_electrons       =      -0.000000000086

Spin          Integrated_Ne            Fermi_level     Delta_Fermi_level
   1      2560.000000000461         0.186680002236              4.80E-05

                           Spin 1          
     Orb      H-eigenvalues     Occupancies
       1 |    -0.5395487963    1.0000000000 | 
                          ------
    1276 |     0.1521673763    0.9999815093 | 
    1277 |     0.1526921354    0.9999781769 | 
    1278 |     0.1527118921    0.9999780403 | 
    1279 |     0.1531205399    0.9999750158 | 
    1280 |     0.1536628907    0.9999703488 | 
                 - Gap at zero temperature -
    1281 |     0.2222601731    0.0000131993 | 
    1282 |     0.2222702243    0.0000131575 | 
    1283 |     0.2223125935    0.0000129827 | 
    1284 |     0.2224645223    0.0000123745 | 
    1285 |     0.2224689966    0.0000123571 | 
                          ------
    2560 |     1.0208350230    0.0000000000 | 

                       |  Abs_value |  Threshold | Converged
     Delta_Free_energy |   1.11E-04 |   1.00E-06 |        No
     Delta_Energy      |   1.11E-04 |   1.00E-04 |        No
     Delta_Entropy     |   1.21E-07 |   1.00E-04 |       Yes
     Commutator        |   7.57E-06 |   1.00E-05 |       Yes
     Delta_Fermi_level |   4.80E-05 |   1.00E-03 |       Yes

  Line search of the free energy minimum:
  Step_type        Step             Free_energy   Predicted_free_energy
.   Initial    0.000000    -3649.88541046105274
.    Trial1    0.380378    -3649.88544764155085
.    Trial2    0.617053    -3649.88536735201160
. Quadratic    0.259201    -3649.88545805495414    -3649.88545804047908

--------------------------------------------------------------------------------
  Iter                              Commutator    Free_energy(A=E-TS)     DeltaA
#    4                          0.000004916327   -3649.88545805495414  -4.76E-05

Step                       =       0.259201019347
Energy                     =   -3649.885430164124
[...]
 C   160 -- C   385       -0.10      5.37000
 C   159 -- C   384       -0.10      5.37000
 C   158 -- C   383       -0.10      5.37000
 C   157 -- C   382       -0.10      5.37000
 C   156 -- C   381       -0.10      5.37000
 C   155 -- C   355       -0.10      5.37000
 C   154 -- C   354       -0.10      5.37000
 C   153 -- C   353       -0.10      5.37000
 C   152 -- C   352       -0.10      5.37000
 C   151 -- C   351       -0.10      5.37000
 C   140 -- C   335       -0.10      5.37000
 C   139 -- C   334       -0.10      5.37000
 C   138 -- C   333       -0.10      5.37000
 C   137 -- C   332       -0.10      5.37000
 C   136 -- C   331       -0.10      5.37000
 C   115 -- C   325       -0.10      5.37000
 C   114 -- C   324       -0.10      5.37000
 C   113 -- C   323       -0.10      5.37000
 C   112 -- C   322       -0.10      5.37000
 C   111 -- C   321       -0.10      5.37000
 C   219 -- C   569       -0.10      5.37202
 C   218 -- C   568       -0.10      5.37202
 C   217 -- C   567       -0.10      5.37202
 C   216 -- C   566       -0.10      5.37202
 C   285 -- C   580       -0.10      5.37202
 C   284 -- C   579       -0.10      5.37202
 C   283 -- C   578       -0.10      5.37202
 C   282 -- C   577       -0.10      5.37202
 C   281 -- C   576       -0.10      5.37202
 C   260 -- C   605       -0.10      5.37202
 C   259 -- C   604       -0.10      5.37202
 C   258 -- C   603       -0.10      5.37202
 C   257 -- C   602       -0.10      5.37202
 C   256 -- C   601       -0.10      5.37202
 C   250 -- C   540       -0.10      5.37202
 C   249 -- C   539       -0.10      5.37202
 C   248 -- C   538       -0.10      5.37202
 C   247 -- C   537       -0.10      5.37202
 C   246 -- C   536       -0.10      5.37202
 C   220 -- C   570       -0.10      5.37202
 C   220 -- C   515       -0.10      5.37202
 C   219 -- C   514       -0.10      5.37202
 C   218 -- C   513       -0.10      5.37202
 C   217 -- C   512       -0.10      5.37202
 C   216 -- C   511       -0.10      5.37202
 C    95 -- C   425       -0.10      5.37202
 C    94 -- C   424       -0.10      5.37202
 C    93 -- C   423       -0.10      5.37202
 C   195 -- C   540       -0.10      5.37202
 C   195 -- C   500       -0.10      5.37202
 C   194 -- C   539       -0.10      5.37202
 C    92 -- C   422       -0.10      5.37202
 C   194 -- C   499       -0.10      5.37202
 C   193 -- C   538       -0.10      5.37202
 C   193 -- C   498       -0.10      5.37202
 C   192 -- C   537       -0.10      5.37202
 C    91 -- C   421       -0.10      5.37202
 C   192 -- C   497       -0.10      5.37202
 C   191 -- C   536       -0.10      5.37202
 C   191 -- C   496       -0.10      5.37202
 C    85 -- C   355       -0.10      5.37202
 C   180 -- C   515       -0.10      5.37202
 C    84 -- C   354       -0.10      5.37202
 C   179 -- C   514       -0.10      5.37202
 C    83 -- C   353       -0.10      5.37202
 C   178 -- C   513       -0.10      5.37202
 C   177 -- C   512       -0.10      5.37202
 C    82 -- C   352       -0.10      5.37202
 C   176 -- C   511       -0.10      5.37202
 C    81 -- C   351       -0.10      5.37202
 C   120 -- C   395       -0.10      5.37202
 C    55 -- C   385       -0.10      5.37202
 C   119 -- C   394       -0.10      5.37202
 C   118 -- C   393       -0.10      5.37202
 C   117 -- C   392       -0.10      5.37202
 C    54 -- C   384       -0.10      5.37202
 C   116 -- C   391       -0.10      5.37202
 C    53 -- C   383       -0.10      5.37202
 C    52 -- C   382       -0.10      5.37202
 C    51 -- C   381       -0.10      5.37202
 C   205 -- C   550       -0.10      5.37202
 C   204 -- C   549       -0.10      5.37202
 C   203 -- C   548       -0.10      5.37202
 C   202 -- C   547       -0.10      5.37202
 C   201 -- C   546       -0.10      5.37202
 C    95 -- C   365       -0.10      5.37202
 C    94 -- C   364       -0.10      5.37202
 C    93 -- C   363       -0.10      5.37202
 C    92 -- C   362       -0.10      5.37202
 C    91 -- C   361       -0.10      5.37202
 C    65 -- C   395       -0.10      5.37202
 C    64 -- C   394       -0.10      5.37202
 C    63 -- C   393       -0.10      5.37202
 C    30 -- C   355       -0.10      5.37202
 C    62 -- C   392       -0.10      5.37202
 C    61 -- C   391       -0.10      5.37202
 C    29 -- C   354       -0.10      5.37202
 C   260 -- C   550       -0.10      5.37202
 C   259 -- C   549       -0.10      5.37202
 C    28 -- C   353       -0.10      5.37202
 C   258 -- C   548       -0.10      5.37202
 C   257 -- C   547       -0.10      5.37202
 C   256 -- C   546       -0.10      5.37202
 C    27 -- C   352       -0.10      5.37202
 C    26 -- C   351       -0.10      5.37202
 C    55 -- C   335       -0.10      5.37202
 C    54 -- C   334       -0.10      5.37202
 C    53 -- C   333       -0.10      5.37202
 C   230 -- C   580       -0.10      5.37202
 C   230 -- C   525       -0.10      5.37202
 C   229 -- C   579       -0.10      5.37202
 C   229 -- C   524       -0.10      5.37202
 C   228 -- C   578       -0.10      5.37202
 C    52 -- C   332       -0.10      5.37202
 C   228 -- C   523       -0.10      5.37202
 C   227 -- C   577       -0.10      5.37202
 C   227 -- C   522       -0.10      5.37202
 C   226 -- C   576       -0.10      5.37202
 C   226 -- C   521       -0.10      5.37202
 C    51 -- C   331       -0.10      5.37202
 C    23 -- C   478       -0.10      5.37202
 C    49 -- C   469       -0.10      5.37202
 C    11 -- C   331       -0.10      5.37202
 C    48 -- C   468       -0.10      5.37202
 C    47 -- C   467       -0.10      5.37202
 C    22 -- C   477       -0.10      5.37202
 C    46 -- C   466       -0.10      5.37202
 C    21 -- C   476       -0.10      5.37202
 C    40 -- C   365       -0.10      5.37202
 C    39 -- C   364       -0.10      5.37202
 C    38 -- C   363       -0.10      5.37202
 C    37 -- C   362       -0.10      5.37202
 C    36 -- C   361       -0.10      5.37202
 C    15 -- C   335       -0.10      5.37202
 C    65 -- C   345       -0.10      5.37202
 C    64 -- C   344       -0.10      5.37202
 C    63 -- C   343       -0.10      5.37202
 C    30 -- C   325       -0.10      5.37202
 C    14 -- C   334       -0.10      5.37202
 C    62 -- C   342       -0.10      5.37202
 C    61 -- C   341       -0.10      5.37202
 C    29 -- C   324       -0.10      5.37202
 C    28 -- C   323       -0.10      5.37202
 C    13 -- C   333       -0.10      5.37202
 C    27 -- C   322       -0.10      5.37202
 C    26 -- C   321       -0.10      5.37202
 C    25 -- C   480       -0.10      5.37202
 C    12 -- C   332       -0.10      5.37202
 C    24 -- C   479       -0.10      5.37202
 C    50 -- C   470       -0.10      5.37202
 C    24 -- C   449       -0.10      5.37202
 C     6 -- C   416       -0.10      5.37202
 C    23 -- C   448       -0.10      5.37202
 C    22 -- C   447       -0.10      5.37202
 C    10 -- C   470       -0.10      5.37202
 C     5 -- C   450       -0.10      5.37202
 C    21 -- C   446       -0.10      5.37202
 C    10 -- C   420       -0.10      5.37202
 C     9 -- C   469       -0.10      5.37202
 C     9 -- C   419       -0.10      5.37202
 C     8 -- C   468       -0.10      5.37202
 C     4 -- C   449       -0.10      5.37202
 C   150 -- C   440       -0.10      5.37202
 C   149 -- C   439       -0.10      5.37202
 C   148 -- C   438       -0.10      5.37202
 C   147 -- C   437       -0.10      5.37202
 C     8 -- C   418       -0.10      5.37202
 C   146 -- C   436       -0.10      5.37202
 C     2 -- C   447       -0.10      5.37202
 C   135 -- C   460       -0.10      5.37202
 C     7 -- C   467       -0.10      5.37202
 C   134 -- C   459       -0.10      5.37202
 C   133 -- C   458       -0.10      5.37202
 C   132 -- C   457       -0.10      5.37202
 C   131 -- C   456       -0.10      5.37202
 C     7 -- C   417       -0.10      5.37202
 C     1 -- C   446       -0.10      5.37202
 C     6 -- C   466       -0.10      5.37202
 C    25 -- C   450       -0.10      5.37202
 C     3 -- C   448       -0.10      5.37202
 C   106 -- C   436       -0.10      5.37202
 C   106 -- C   376       -0.10      5.37202
 C    80 -- C   410       -0.10      5.37202
 C    79 -- C   409       -0.10      5.37202
 C    78 -- C   408       -0.10      5.37202
 C    77 -- C   407       -0.10      5.37202
 C    76 -- C   406       -0.10      5.37202
 C   135 -- C   410       -0.10      5.37202
 C   134 -- C   409       -0.10      5.37202
 C   133 -- C   408       -0.10      5.37202
 C   132 -- C   407       -0.10      5.37202
 C   131 -- C   406       -0.10      5.37202
 C   110 -- C   440       -0.10      5.37202
 C   110 -- C   380       -0.10      5.37202
 C   109 -- C   439       -0.10      5.37202
 C   109 -- C   379       -0.10      5.37202
 C   108 -- C   438       -0.10      5.37202
 C   108 -- C   378       -0.10      5.37202
 C   107 -- C   437       -0.10      5.37202
 C   107 -- C   377       -0.10      5.37202
 C   215 -- C   635       -0.10      5.38000
 C   214 -- C   634       -0.10      5.38000
 C   213 -- C   633       -0.10      5.38000
 C   212 -- C   632       -0.10      5.38000
 C   211 -- C   631       -0.10      5.38000
 C   190 -- C   620       -0.10      5.38000
 C   189 -- C   619       -0.10      5.38000
 C   188 -- C   618       -0.10      5.38000
 C   187 -- C   617       -0.10      5.38000
 C   186 -- C   616       -0.10      5.38000
 C   175 -- C   595       -0.10      5.38000
 C   174 -- C   594       -0.10      5.38000
 C   173 -- C   593       -0.10      5.38000
 C   172 -- C   592       -0.10      5.38000
 C   171 -- C   591       -0.10      5.38000
 C   245 -- C   640       -0.10      5.38000
 C   244 -- C   639       -0.10      5.38000
 C   243 -- C   638       -0.10      5.38000
 C   242 -- C   637       -0.10      5.38000
 C   241 -- C   636       -0.10      5.38000
==================================================


=================== Orbital energy and occupancy information ===================

      Total number of orbitals:    2560
        Occupancy sum (kernel):    1279.999999999
   Occupancy sum (eigenvalues):    1279.999999999
                 HOMO-LUMO gap:       0.064922931 Eh
                 Mid-gap level:       0.237693822 Eh

                        Orbital | Energy (Eh) | Occupancy
                            1    -0.485285978   1.0000000
                        .......   ...........   .........
                         1271     0.200164223   0.9999891
                         1272     0.200191376   0.9999890
                         1273     0.200636126   0.9999873
                         1274     0.200663220   0.9999872
                         1275     0.203735296   0.9999662
                         1276     0.203742802   0.9999662
                         1277     0.204200507   0.9999609
                         1278     0.204208040   0.9999608
                         1279     0.204773003   0.9999532
                         1280     0.205232356   0.9999458
                        ....... -- gap at 0K -- .........
                         1281     0.270155288   0.0000230
                         1282     0.270157001   0.0000230
                         1283     0.270406143   0.0000213
                         1284     0.270407866   0.0000212
                         1285     0.270620343   0.0000199
                         1286     0.270634579   0.0000198
                         1287     0.270883505   0.0000183
                         1288     0.270898000   0.0000182
                         1289     0.270994449   0.0000177
                         1290     0.271167200   0.0000167
                        .......   ...........   .........
                         2560     1.130135754   0.0000000

================================================================================

===================== Writing canonical molecular orbitals =====================
| Orbital  Energy (eV)  Norm     |
| HOMO      5.58465657  1.000000 | Writing "3.5418184_GO_manual_4x64graphite_HOMO.cube" ... done
Writing "3.5418184_GO_manual_4x64graphite_HOMO.dx" ... done
| LUMO      7.35129943  1.000000 | Writing "3.5418184_GO_manual_4x64graphite_LUMO.cube" ... done
Writing "3.5418184_GO_manual_4x64graphite_LUMO.dx" ... done
================================================================================
 
===================== Density of States (DOS) calculation ======================
Writing "3.5418184_GO_manual_4x64graphite_DOS.txt" ...  done
================================================================================
 
Writing bands to file "3.5418184_GO_manual_4x64graphite.val_bands" ... done
 
================ Projected Density of States (pDOS) calculation ================
 
Constructing AM resolved functions  ...... done
Writing NGWF plot files in formats: CUBE DX ...  done
 
Performing overlap integrals ...  done
 
Computing pDOS weights ...  done
 
All bands spilling parameter =   3.47 %
Occupancy-weighted spilling parameter =   0.91 %
 
 => Outputting data for OptaDOS <=
 
Writing pDOS weights to file "3.5418184_GO_manual_4x64graphite.val_pdos_bin" ... done
 
Writing band gradients to file "3.5418184_GO_manual_4x64graphite.val_dome_bin" ... done
 
Writing Castep output cell file to "3.5418184_GO_manual_4x64graphite-out.cell" ... done
 
 => Computing Gaussian smeared pDOS <= 
Writing "3.5418184_GO_manual_4x64graphite_PDOS.txt" ...  done
 
 => Computing Occupancy-weighted Gaussian smeared pDOS <= 
Writing "3.5418184_GO_manual_4x64graphite_occ_PDOS.txt" ...  done
  => Band centres: 
 S band centre of group 1:  -13.823339 eV
 P band centre of group 1:   -6.705434 eV
  Band centres done. <=
  => Integrated number of electrons in each AM band: 
 S num electrons of group 1:  575.522687
 P num electrons of group 1: 1961.301540
  Integrated number of electrons done. <=
================================================================================

------------------------------ TIMING INFORMATION ------------------------------
AVERAGE TIME:    3577.249s on     40 node(s)                                    
TOTAL TIME:      3577.251s on     40 node(s)                                    
================= AVERAGE TIMINGS FROM ALL NODES (CUMULATIVE) ==================
|| TAG                                    #calls    cpu time   %total  Gflops ||
|| work_imbalance                       :     1        0.00s   0.000%  ------ ||
|| paw_tcore_hartree_on_grid            :     1        0.01s   0.000%  ------ ||
|| paw_tcore_density                    :     1        0.01s   0.000%  ------ ||
|| paw_sphere_density_on_grid           :     1        0.01s   0.000%  ------ ||
|| sparse_set_to_garbage                :   159        0.03s   0.001%  ------ ||
|| paw_dij_hartree                      :   320        0.04s   0.001%  ------ ||
|| pseudo_make_structure_factor         :     1        0.06s   0.002%  ------ ||
|| basis_extract_function_from_box      :  1792        0.08s   0.002%  ------ ||
|| paw_species_calc_proj_prec_mat       :     1        0.12s   0.003%  ------ ||
|| paw_dataset_init                     :     1        0.15s   0.004%  ------ ||
|| density_init_guess_real              :     1        0.17s   0.005%  ------ ||
|| ngwfs_initialise_from_radial         :     2        0.67s   0.019%  ------ ||
|| restart_kernel_write                 :    15        0.82s   0.023%  ------ ||
|| dense_normal_eigensolve              :     1        1.00s   0.028%  ------ ||
|| sparse_init                          :     1        1.02s   0.028%  ------ ||
|| hartree_on_grid                      :   240        1.28s   0.036%  ------ ||
|| projectors_init_fftbox_recip         :   141        2.72s   0.076%  ------ ||
|| ewald_calculate_energy               :     1        2.88s   0.080%  ------ ||
|| fourier_apply_box_pair               :  2656        4.39s   0.123% 561.389 ||
|| basis_copy_function_to_box           : 22848        4.94s   0.138%  ------ ||
|| augmentation_screen_dij              :   245        5.41s   0.151%  ------ ||
|| sw_init                              :     1        6.73s   0.188%  ------ ||
|| sparse_embed_hotelling_invert_embed  :    27        7.86s   0.220%  ------ ||
|| ngwf_gradient_coeffs                 :    14        9.86s   0.276%  ------ ||
|| sparse_trace                         :  2894       13.52s   0.378%  ------ ||
|| fourier_apply_cell_backward          :  7411       14.37s   0.402%  64.160 ||
|| fourier_apply_cell_forward           :  6932       15.34s   0.429%  56.220 ||
|| cell_grid_extract_box_real           :  9628       15.64s   0.437%  ------ ||
|| cell_grid_deposit_box_real           : 30896       20.38s   0.570%  ------ ||
|| paw_dij_xc                           :   320       21.45s   0.600%  ------ ||
|| aug_nonlocal_mat                     :   306       31.59s   0.883%  ------ ||
|| density_fftbox_deposit_to_cell       : 15360       42.09s   1.177%  ------ ||
|| augmentation_density_on_grid         :   240       42.89s   1.199%  ------ ||
|| hamiltonian_energy_components        :     3       47.34s   1.323%  ------ ||
|| function_ops_brappd_ketppd           :    56       52.94s   1.480%  ------ ||
|| eigenstates_pdos                     :     1       55.27s   1.545%  ------ ||
|| eigenstates_calculate                :     1       59.45s   1.662%  ------ ||
|| nlxc_vdw_energy                      :   478       62.49s   1.747%  ------ ||
|| projectors_func_ovlp_box             :    28       62.83s   1.756%  ------ ||
|| xc_energy_potential                  :   239       70.45s   1.969%  ------ ||
|| integrals_kinetic                    :    27       89.20s   2.494%  ------ ||
|| dense_eigensolve                     :   209      103.90s   2.904%  ------ ||
|| properties_calculate                 :     1      105.65s   2.953%  ------ ||
|| potential_apply_to_ngwf_batch        :   300      117.38s   3.281%  ------ ||
|| sparse_product                       :  2947      119.71s   3.346%  ------ ||
|| restart_ngwfs_tightbox_output        :    13      184.10s   5.147%  ------ ||
|| basis_dot_function_with_box          : 7.236M     200.65s   5.609%  ------ ||
|| fourier_apply_box                    : 72128      223.74s   6.254% 977.809 ||
|| edft_diag_ngwf_ham                   :   208      232.48s   6.499%  ------ ||
|| projectors_gradient_batch            :    56      254.44s   7.113%  ------ ||
|| integrals_locpot_mat_els_batch       :   300      255.27s   7.136%  ------ ||
|| density_fftbox_interpolate_multiply  : 15360      297.67s   8.321%  ------ ||
|| projectors_grad_precond_batch        :    56      350.84s   9.808%  ------ ||
|| integrals_locpot_dbl_grid            :    75      374.07s  10.457%  ------ ||
|| density_batch_interp_deposit         :   960      377.44s  10.551%  ------ ||
|| edft_apply_smearing_operator         :   208      451.55s  12.623%  ------ ||
|| basis_add_function_to_box            : 20.46M     548.92s  15.345%  ------ ||
|| ngwf_gradient_build_batch            :    56      647.74s  18.107%  ------ ||
|| density_batch_row_sums               :   960      735.18s  20.552%  ------ ||
|| ngwf_gradient_batch                  :    56      859.47s  24.026%  ------ ||
|| ngwf_gradient_lnv                    :    14      884.64s  24.730%  ------ ||
|| density_on_dbl_grid                  :   240     1125.69s  31.468%  ------ ||
|| hamiltonian_lhxc_calculate           :   235     1217.08s  34.023%  ------ ||
|| edft_calculate                       :    14     2024.66s  56.598%  ------ ||
|| ngwf_cg_optimise                     :     1     3446.52s  96.346%  ------ ||
|| total_time                           :     1     3577.25s 100.000%  ------ ||
================================================================================
Overhead of generating timer report: 
- 0 ms averaging over threads,
- 6 ms ensuring consistency across MPI ranks,
- 0 ms printing in order.

Job completed: 25-02-2020 00:15 (-0000)

