 +---------------------------------------------------------------+
 |                                                               |
 |        ####### #     # ####### ####### ####### ######         |
 |        #     # ##    # #          #    #       #     #        |
 |        #     # # #   # #          #    #       #     #        |
 |        #     # #  #  # #####      #    #####   ######         |
 |        #     # #   # # #          #    #       #              |
 |        #     # #    ## #          #    #       #              |
 |        ####### #     # #######    #    ####### #              |
 |                                                               |
 |        Linear-Scaling Ab Initio Total Energy Program          |
 |                                                               |
 |          Release for academic collaborators of ODG            |
 |                                             Version 5.3.2.12  |
 |                                                               |
 +---------------------------------------------------------------+
 |                                                               |
 |  Authors:                                                     |
 |  Jacek Dziedzic, Peter D. Haynes, Nicholas D. M. Hine,        |
 |  Arash. A. Mostofi, Mike C. Payne and Chris-Kriton Skylaris   |
 |                                                               |
 |  Contributors:                                                |
 |  J. Aarons, L. Andrinopoulos, P. W. Avraam, R. A. Bell,       |
 |  A. Bhandari, G. A. Bramley, R. J. Charlton, S. J. Clark,     |
 |  R. J. Clements, G. C. Constantinescu, F. Corsetti,           |
 |  N. Corsini, O. Dieguez, S. M. M. Dubois, K. K. B. Duff,      |
 |  J. M. Escartin, A. Greco, H. Helal, Q. O. Hill, L. P. Lee,   |
 |  J.-H. Li, E. B. Linscott, G. Moynihan, D. D. O`Regan,        |
 |  O. K. Okan, M. J. S. Phipps, C. J. Pickard,                  |
 |  J. C. A. Prentice, M. I. J. Probert, L. E. Ratcliff,         |
 |  M. Robinson, A. Ruiz Serrano, J. S. Spencer, E. W. Tait,     |
 |  G. Teobaldi, D. Turban, V. Vitale, K. A. Wilkinson,          |
 |  C. Weber, J. C. Womack, N. Yeung and T. J. Zuehlsdorff       |
 |                                                               |
 |                                   Copyright (c) 2004-2020     |
 |                                                               |
 |  Please cite:                                                 |
 |  "Introducing ONETEP: Linear-scaling density functional       |
 |   simulations on parallel computers".                         |
 |   C.-K. Skylaris, P. D. Haynes, A. A. Mostofi, M. C. Payne.   |
 |   J. Chem. Phys. 122 084119 (2005).                           |
 |                                                               |
 |          in all publications arising from your use of ONETEP. |
 |                                                               |
 +---------------------------------------------------------------+
 |                                                               |
 |   ONETEP is based on developments described in the following  |
 |   publications:                                               |
 |                                                               |
 |  "Nonorthogonal generalized Wannier function pseudopotential  |
 |   plane-wave method".                                         |
 |   C.-K. Skylaris, A. A. Mostofi, P. D. Haynes, O. Dieguez,    |
 |   M. C. Payne.                                                |
 |   Phys. Rev. B 66 035119 (2002).                              |
 |                                                               |
 |  "Preconditioned iterative minimization for linear-scaling    |
 |   electronic structure calculations".                         |
 |   A. A. Mostofi, P. D. Haynes, C.-K. Skylaris, M. C. Payne.   |
 |   J. Chem. Phys. 119(17), pp.8842-8848 (2003).                |
 |                                                               |
 |  "Total-energy calculations on a real space grid with         |
 |   localized functions and a plane-wave basis".                |
 |   A. A. Mostofi, C.-K. Skylaris, P. D. Haynes, M. C. Payne.   |
 |   Comput. Phys. Commun. 147, pp.788-802 (2002).               |
 |                                                               |
 |  "Accurate kinetic energy evaluation in electronic structure  |
 |   calculations with localized functions on real space grids"  |
 |   C.-K. Skylaris, A. A. Mostofi, P. D. Haynes, C. J. Pickard, |
 |   M. C. Payne.                                                |
 |   Comput. Phys. Commun. 140, pp.315-322 (2001).               |
 |                                                               |
 |  "Accurate ionic forces and geometry optimization in linear-  |
 |   scaling density-functional theory with local orbitals"      |
 |   N. D. M. Hine, M. Robinson, P. D. Haynes, C.-K. Skylaris,   |
 |   M. C. Payne, and A. A. Mostofi.                             |
 |   Phys. Rev. B 83 195102 (2011).                              |
 |                                                               |
 +---------------------------------------------------------------+

Job started: 29-02-2020 09:40 (-0000)
 
Reading parameters from file "3.6491432_GO_manual_4x64graphite.dat" ...

WARNING: "cutoff_energy" not specified, but "psinc_spacing" specified.
         Using the latter to set the KE cutoff energy to  732.32021eV,
         thus *overriding* the default.

... done

If your calculation crashes here, before "Checking processes and threads..."
is displayed, then your stack size is insufficient.
If so, use "ulimit -s unlimited" at runtime.
You can disable this check with "check_stack_size F".

Checking processes and threads...
   Determining the default number of threads...
      No default threads set at compilation time: defaulting to 1.
      OpenMP library call suggests 4 threads.
      Hybrid MPI-OpenMP compilation detected.
      Number of MPI processes > 1.
      OMP_NUM_THREADS environment variable present and
      its value matches the one obtained from the OpenMP library call.
      Using this value as default.
      Default threads: 4
      Default applies to threads_max and threads_num_fftboxes.
      Settings in the input file override this default.
   ... done

   Running with 40 MPI processes.
   There are 10 MPI processes running on the same node as the root process.
   Each MPI process is using: 
               1 threads for simulation cell FFTs.
               1 threads for parallel FFT box operations.
               4 threads for loops over batched FFT box operations.
               4 threads in other parallel regions.
... done

Basic input checks...
Resetting ngwf_cg_rotate to TRUE for EDFT calculations
... done

Reading geometry and species blocks from file "3.6491432_GO_manual_4x64graphite.dat" ...
    
  PSINC grid spacing along a1 set to   0.511215680000a0 from input file.
  PSINC grid spacing along a2 set to   0.531284090000a0 from input file.
  PSINC grid spacing along a3 set to   0.507051130000a0 from input file.
  Number of PPD points along a3 set to 1.  This is 
  the default value, it may have been provided also in the input file.
... done
 Writing xyz coordinates to file "3.6491432_GO_manual_4x64graphite.xyz" ... done


--------------------------------------------------------------------------------
---------------------------------- INPUT FILE ----------------------------------
--------------------------------------------------------------------------------

task : singlepoint                                                              
do_properties : true                                                            
dx_format T                                                                     
edft T                                                                          
output_detail VERBOSE                                                           
write_xyz T                                                                     
xc_functional OPTPBE                                                            
PSINC_SPACING 0.51121568 0.53128409 0.50705113                                  
paw T                                                                           
pdos_max_l = 2                                                                  
dos_smear  0.1 eV                                                               
popn_calculate T                                                                
PDOS_PSEUDOATOMIC T                                                             
PDOS_REDUCE_SWS F                                                               
PDOS_CONSTRUCT_BASIS F                                                          
PDOS_LOWDIN T                                                                   
PDOS_ORTH_ATOM_BLOCKS F                                                         
PDOS_LCAO_OPTIMIZE F                                                            
pdos_optados_output T                                                           
homo_plot 0                                                                     
lumo_plot 0                                                                     
homo_dens_plot -1                                                               
lumo_dens_plot -1                                                               
%BLOCK SPECIES                                                                  
C C 6 4 9.0                                                                     
%ENDBLOCK SPECIES                                                               
%BLOCK SPECIES_POT                                                              
C "~/pp/paw/c_pbe_abinit.paw"                                                   
%ENDBLOCK SPECIES_POT                                                           
%BLOCK SPECIES_ATOMIC_SET                                                       
C "SOLVE conf=2s2 2p2"                                                          
%ENDBLOCK SPECIES_ATOMIC_SET                                                    
%BLOCK LATTICE_CART                                                             
32.21  0.00  0.00                                                               
0.00 18.59  0.00                                                                
0.00  0.00 68.96                                                                
%ENDBLOCK LATTICE_CART                                                          
%BLOCK POSITIONS_ABS                                                            
C  0.00  0.00  3.45                                                             
C  0.00  0.00 17.24                                                             
C  0.00  0.00 31.03                                                             
C  0.00  0.00 44.82                                                             
C  0.00  0.00 58.62                                                             
C  0.00  4.65  3.45                                                             
C  0.00  4.65 17.24                                                             
C  0.00  4.65 31.03                                                             
C  0.00  4.65 44.82                                                             
C  0.00  4.65 58.62                                                             
C  4.03  2.32  3.45                                                             
C  4.03  2.32 17.24                                                             
C  4.03  2.32 31.03                                                             
C  4.03  2.32 44.82                                                             
C  4.03  2.32 58.62                                                             
C  8.05  0.00  3.45                                                             
C  8.05  0.00 17.24                                                             
C  8.05  0.00 31.03                                                             
C  8.05  0.00 44.82                                                             
C  8.05  0.00 58.62                                                             
C  0.00  9.30  3.45                                                             
C  0.00  9.30 17.24                                                             
C  0.00  9.30 31.03                                                             
C  0.00  9.30 44.82                                                             
C  0.00  9.30 58.62                                                             
C  4.03  6.97  3.45                                                             
C  4.03  6.97 17.24                                                             
C  4.03  6.97 31.03                                                             
C  4.03  6.97 44.82                                                             
C  4.03  6.97 58.62                                                             
C  8.05  4.65  3.45                                                             
C  8.05  4.65 17.24                                                             
C  8.05  4.65 31.03                                                             
C  8.05  4.65 44.82                                                             
C  8.05  4.65 58.62                                                             
C 12.08  2.32  3.45                                                             
C 12.08  2.32 17.24                                                             
C 12.08  2.32 31.03                                                             
C 12.08  2.32 44.82                                                             
C 12.08  2.32 58.62                                                             
C 16.10  0.00  3.45                                                             
C 16.10  0.00 17.24                                                             
C 16.10  0.00 31.03                                                             
C 16.10  0.00 44.82                                                             
C 16.10  0.00 58.62                                                             
C  0.00 13.95  3.45                                                             
C  0.00 13.95 17.24                                                             
C  0.00 13.95 31.03                                                             
C  0.00 13.95 44.82                                                             
C  0.00 13.95 58.62                                                             
C  4.03 11.62  3.45                                                             
C  4.03 11.62 17.24                                                             
C  4.03 11.62 31.03                                                             
C  4.03 11.62 44.82                                                             
C  4.03 11.62 58.62                                                             
C  8.05  9.30  3.45                                                             
C  8.05  9.30 17.24                                                             
C  8.05  9.30 31.03                                                             
C  8.05  9.30 44.82                                                             
C  8.05  9.30 58.62                                                             
C 12.08  6.97  3.45                                                             
C 12.08  6.97 17.24                                                             
C 12.08  6.97 31.03                                                             
C 12.08  6.97 44.82                                                             
C 12.08  6.97 58.62                                                             
C 16.10  4.65  3.45                                                             
C 16.10  4.65 17.24                                                             
C 16.10  4.65 31.03                                                             
C 16.10  4.65 44.82                                                             
C 16.10  4.65 58.62                                                             
C 20.13  2.32  3.45                                                             
C 20.13  2.32 17.24                                                             
C 20.13  2.32 31.03                                                             
C 20.13  2.32 44.82                                                             
C 20.13  2.32 58.62                                                             
C 24.16  0.00  3.45                                                             
C 24.16  0.00 17.24                                                             
C 24.16  0.00 31.03                                                             
C 24.16  0.00 44.82                                                             
C 24.16  0.00 58.62                                                             
C  4.03 16.27  3.45                                                             
C  4.03 16.27 17.24                                                             
C  4.03 16.27 31.03                                                             
C  4.03 16.27 44.82                                                             
C  4.03 16.27 58.62                                                             
C  8.05 13.95  3.45                                                             
C  8.05 13.95 17.24                                                             
C  8.05 13.95 31.03                                                             
C  8.05 13.95 44.82                                                             
C  8.05 13.95 58.62                                                             
C 12.08 11.62  3.45                                                             
C 12.08 11.62 17.24                                                             
C 12.08 11.62 31.03                                                             
C 12.08 11.62 44.82                                                             
C 12.08 11.62 58.62                                                             
C 16.10  9.30  3.45                                                             
C 16.10  9.30 17.24                                                             
C 16.10  9.30 31.03                                                             
C 16.10  9.30 44.82                                                             
C 16.10  9.30 58.62                                                             
C 20.13  6.97  3.45                                                             
C 20.13  6.97 17.24                                                             
C 20.13  6.97 31.03                                                             
C 20.13  6.97 44.82                                                             
C 20.13  6.97 58.62                                                             
C 24.16  4.65  3.45                                                             
C 24.16  4.65 17.24                                                             
C 24.16  4.65 31.03                                                             
C 24.16  4.65 44.82                                                             
C 24.16  4.65 58.62                                                             
C 28.18  2.32  3.45                                                             
C 28.18  2.32 17.24                                                             
C 28.18  2.32 31.03                                                             
C 28.18  2.32 44.82                                                             
C 28.18  2.32 58.62                                                             
C 12.08 16.27  3.45                                                             
C 12.08 16.27 17.24                                                             
C 12.08 16.27 31.03                                                             
C 12.08 16.27 44.82                                                             
C 12.08 16.27 58.62                                                             
C 16.10 13.95  3.45                                                             
C 16.10 13.95 17.24                                                             
C 16.10 13.95 31.03                                                             
C 16.10 13.95 44.82                                                             
C 16.10 13.95 58.62                                                             
C 20.13 11.62  3.45                                                             
C 20.13 11.62 17.24                                                             
C 20.13 11.62 31.03                                                             
C 20.13 11.62 44.82                                                             
C 20.13 11.62 58.62                                                             
C 24.16  9.30  3.45                                                             
C 24.16  9.30 17.24                                                             
C 24.16  9.30 31.03                                                             
C 24.16  9.30 44.82                                                             
C 24.16  9.30 58.62                                                             
C 28.18  6.97  3.45                                                             
C 28.18  6.97 17.24                                                             
C 28.18  6.97 31.03                                                             
C 28.18  6.97 44.82                                                             
C 28.18  6.97 58.62                                                             
C 20.13 16.27  3.45                                                             
C 20.13 16.27 17.24                                                             
C 20.13 16.27 31.03                                                             
C 20.13 16.27 44.82                                                             
C 20.13 16.27 58.62                                                             
C 24.16 13.95  3.45                                                             
C 24.16 13.95 17.24                                                             
C 24.16 13.95 31.03                                                             
C 24.16 13.95 44.82                                                             
C 24.16 13.95 58.62                                                             
C 28.18 11.62  3.45                                                             
C 28.18 11.62 17.24                                                             
C 28.18 11.62 31.03                                                             
C 28.18 11.62 44.82                                                             
C 28.18 11.62 58.62                                                             
C 28.18 16.27  3.45                                                             
C 28.18 16.27 17.24                                                             
C 28.18 16.27 31.03                                                             
C 28.18 16.27 44.82                                                             
C 28.18 16.27 58.62                                                             
C  0.00  0.00 10.34                                                             
C  0.00  0.00 24.14                                                             
C  0.00  0.00 37.93                                                             
C  0.00  0.00 51.72                                                             
C  0.00  0.00 65.51                                                             
C  0.00  4.65 10.34                                                             
C  0.00  4.65 24.14                                                             
C  0.00  4.65 37.93                                                             
C  0.00  4.65 51.72                                                             
C  0.00  4.65 65.51                                                             
C  4.03  2.32 10.34                                                             
C  4.03  2.32 24.14                                                             
C  4.03  2.32 37.93                                                             
C  4.03  2.32 51.72                                                             
C  4.03  2.32 65.51                                                             
C  8.05  0.00 10.34                                                             
C  8.05  0.00 24.14                                                             
C  8.05  0.00 37.93                                                             
C  8.05  0.00 51.72                                                             
C  8.05  0.00 65.51                                                             
C  0.00  9.30 10.34                                                             
C  0.00  9.30 24.14                                                             
C  0.00  9.30 37.93                                                             
C  0.00  9.30 51.72                                                             
C  0.00  9.30 65.51                                                             
C  4.03  6.97 10.34                                                             
C  4.03  6.97 24.14                                                             
C  4.03  6.97 37.93                                                             
C  4.03  6.97 51.72                                                             
C  4.03  6.97 65.51                                                             
C  8.05  4.65 10.34                                                             
C  8.05  4.65 24.14                                                             
C  8.05  4.65 37.93                                                             
C  8.05  4.65 51.72                                                             
C  8.05  4.65 65.51                                                             
C 12.08  2.32 10.34                                                             
C 12.08  2.32 24.14                                                             
C 12.08  2.32 37.93                                                             
C 12.08  2.32 51.72                                                             
C 12.08  2.32 65.51                                                             
C 16.10  0.00 10.34                                                             
C 16.10  0.00 24.14                                                             
C 16.10  0.00 37.93                                                             
C 16.10  0.00 51.72                                                             
C 16.10  0.00 65.51                                                             
C  0.00 13.95 10.34                                                             
C  0.00 13.95 24.14                                                             
C  0.00 13.95 37.93                                                             
C  0.00 13.95 51.72                                                             
C  0.00 13.95 65.51                                                             
C  4.03 11.62 10.34                                                             
C  4.03 11.62 24.14                                                             
C  4.03 11.62 37.93                                                             
C  4.03 11.62 51.72                                                             
C  4.03 11.62 65.51                                                             
C  8.05  9.30 10.34                                                             
C  8.05  9.30 24.14                                                             
C  8.05  9.30 37.93                                                             
C  8.05  9.30 51.72                                                             
C  8.05  9.30 65.51                                                             
C 12.08  6.97 10.34                                                             
C 12.08  6.97 24.14                                                             
C 12.08  6.97 37.93                                                             
C 12.08  6.97 51.72                                                             
C 12.08  6.97 65.51                                                             
C 16.10  4.65 10.34                                                             
C 16.10  4.65 24.14                                                             
C 16.10  4.65 37.93                                                             
C 16.10  4.65 51.72                                                             
C 16.10  4.65 65.51                                                             
C 20.13  2.32 10.34                                                             
C 20.13  2.32 24.14                                                             
C 20.13  2.32 37.93                                                             
C 20.13  2.32 51.72                                                             
C 20.13  2.32 65.51                                                             
C 24.16  0.00 10.34                                                             
C 24.16  0.00 24.14                                                             
C 24.16  0.00 37.93                                                             
C 24.16  0.00 51.72                                                             
C 24.16  0.00 65.51                                                             
C  4.03 16.27 10.34                                                             
C  4.03 16.27 24.14                                                             
C  4.03 16.27 37.93                                                             
C  4.03 16.27 51.72                                                             
C  4.03 16.27 65.51                                                             
C  8.05 13.95 10.34                                                             
C  8.05 13.95 24.14                                                             
C  8.05 13.95 37.93                                                             
C  8.05 13.95 51.72                                                             
C  8.05 13.95 65.51                                                             
C 12.08 11.62 10.34                                                             
C 12.08 11.62 24.14                                                             
C 12.08 11.62 37.93                                                             
C 12.08 11.62 51.72                                                             
C 12.08 11.62 65.51                                                             
C 16.10  9.30 10.34                                                             
C 16.10  9.30 24.14                                                             
C 16.10  9.30 37.93                                                             
C 16.10  9.30 51.72                                                             
C 16.10  9.30 65.51                                                             
C 20.13  6.97 10.34                                                             
C 20.13  6.97 24.14                                                             
C 20.13  6.97 37.93                                                             
C 20.13  6.97 51.72                                                             
C 20.13  6.97 65.51                                                             
C 24.16  4.65 10.34                                                             
C 24.16  4.65 24.14                                                             
C 24.16  4.65 37.93                                                             
C 24.16  4.65 51.72                                                             
C 24.16  4.65 65.51                                                             
C 28.18  2.32 10.34                                                             
C 28.18  2.32 24.14                                                             
C 28.18  2.32 37.93                                                             
C 28.18  2.32 51.72                                                             
C 28.18  2.32 65.51                                                             
C 12.08 16.27 10.34                                                             
C 12.08 16.27 24.14                                                             
C 12.08 16.27 37.93                                                             
C 12.08 16.27 51.72                                                             
C 12.08 16.27 65.51                                                             
C 16.10 13.95 10.34                                                             
C 16.10 13.95 24.14                                                             
C 16.10 13.95 37.93                                                             
C 16.10 13.95 51.72                                                             
C 16.10 13.95 65.51                                                             
C 20.13 11.62 10.34                                                             
C 20.13 11.62 24.14                                                             
C 20.13 11.62 37.93                                                             
C 20.13 11.62 51.72                                                             
C 20.13 11.62 65.51                                                             
C 24.16  9.30 10.34                                                             
C 24.16  9.30 24.14                                                             
C 24.16  9.30 37.93                                                             
C 24.16  9.30 51.72                                                             
C 24.16  9.30 65.51                                                             
C 28.18  6.97 10.34                                                             
C 28.18  6.97 24.14                                                             
C 28.18  6.97 37.93                                                             
C 28.18  6.97 51.72                                                             
C 28.18  6.97 65.51                                                             
C 20.13 16.27 10.34                                                             
C 20.13 16.27 24.14                                                             
C 20.13 16.27 37.93                                                             
C 20.13 16.27 51.72                                                             
C 20.13 16.27 65.51                                                             
C 24.16 13.95 10.34                                                             
C 24.16 13.95 24.14                                                             
C 24.16 13.95 37.93                                                             
C 24.16 13.95 51.72                                                             
C 24.16 13.95 65.51                                                             
C 28.18 11.62 10.34                                                             
C 28.18 11.62 24.14                                                             
C 28.18 11.62 37.93                                                             
C 28.18 11.62 51.72                                                             
C 28.18 11.62 65.51                                                             
C 28.18 16.27 10.34                                                             
C 28.18 16.27 24.14                                                             
C 28.18 16.27 37.93                                                             
C 28.18 16.27 51.72                                                             
C 28.18 16.27 65.51                                                             
C  1.34  2.32  3.45                                                             
C  1.34  2.32 17.24                                                             
C  1.34  2.32 31.03                                                             
C  1.34  2.32 44.82                                                             
C  1.34  2.32 58.62                                                             
C  5.37  0.00  3.45                                                             
C  5.37  0.00 17.24                                                             
C  5.37  0.00 31.03                                                             
C  5.37  0.00 44.82                                                             
C  5.37  0.00 58.62                                                             
C  1.34  6.97  3.45                                                             
C  1.34  6.97 17.24                                                             
C  1.34  6.97 31.03                                                             
C  1.34  6.97 44.82                                                             
C  1.34  6.97 58.62                                                             
C  5.37  4.65  3.45                                                             
C  5.37  4.65 17.24                                                             
C  5.37  4.65 31.03                                                             
C  5.37  4.65 44.82                                                             
C  5.37  4.65 58.62                                                             
C  9.39  2.32  3.45                                                             
C  9.39  2.32 17.24                                                             
C  9.39  2.32 31.03                                                             
C  9.39  2.32 44.82                                                             
C  9.39  2.32 58.62                                                             
C 13.42  0.00  3.45                                                             
C 13.42  0.00 17.24                                                             
C 13.42  0.00 31.03                                                             
C 13.42  0.00 44.82                                                             
C 13.42  0.00 58.62                                                             
C  1.34 11.62  3.45                                                             
C  1.34 11.62 17.24                                                             
C  1.34 11.62 31.03                                                             
C  1.34 11.62 44.82                                                             
C  1.34 11.62 58.62                                                             
C  5.37  9.30  3.45                                                             
C  5.37  9.30 17.24                                                             
C  5.37  9.30 31.03                                                             
C  5.37  9.30 44.82                                                             
C  5.37  9.30 58.62                                                             
C  9.39  6.97  3.45                                                             
C  9.39  6.97 17.24                                                             
C  9.39  6.97 31.03                                                             
C  9.39  6.97 44.82                                                             
C  9.39  6.97 58.62                                                             
C 13.42  4.65  3.45                                                             
C 13.42  4.65 17.24                                                             
C 13.42  4.65 31.03                                                             
C 13.42  4.65 44.82                                                             
C 13.42  4.65 58.62                                                             
C 17.45  2.32  3.45                                                             
C 17.45  2.32 17.24                                                             
C 17.45  2.32 31.03                                                             
C 17.45  2.32 44.82                                                             
C 17.45  2.32 58.62                                                             
C 21.47  0.00  3.45                                                             
C 21.47  0.00 17.24                                                             
C 21.47  0.00 31.03                                                             
C 21.47  0.00 44.82                                                             
C 21.47  0.00 58.62                                                             
C  1.34 16.27  3.45                                                             
C  1.34 16.27 17.24                                                             
C  1.34 16.27 31.03                                                             
C  1.34 16.27 44.82                                                             
C  1.34 16.27 58.62                                                             
C  5.37 13.95  3.45                                                             
C  5.37 13.95 17.24                                                             
C  5.37 13.95 31.03                                                             
C  5.37 13.95 44.82                                                             
C  5.37 13.95 58.62                                                             
C  9.39 11.62  3.45                                                             
C  9.39 11.62 17.24                                                             
C  9.39 11.62 31.03                                                             
C  9.39 11.62 44.82                                                             
C  9.39 11.62 58.62                                                             
C 13.42  9.30  3.45                                                             
C 13.42  9.30 17.24                                                             
C 13.42  9.30 31.03                                                             
C 13.42  9.30 44.82                                                             
C 13.42  9.30 58.62                                                             
C 17.45  6.97  3.45                                                             
C 17.45  6.97 17.24                                                             
C 17.45  6.97 31.03                                                             
C 17.45  6.97 44.82                                                             
C 17.45  6.97 58.62                                                             
C 21.47  4.65  3.45                                                             
C 21.47  4.65 17.24                                                             
C 21.47  4.65 31.03                                                             
C 21.47  4.65 44.82                                                             
C 21.47  4.65 58.62                                                             
C 25.50  2.32  3.45                                                             
C 25.50  2.32 17.24                                                             
C 25.50  2.32 31.03                                                             
C 25.50  2.32 44.82                                                             
C 25.50  2.32 58.62                                                             
C 29.52  0.00  3.45                                                             
C 29.52  0.00 17.24                                                             
C 29.52  0.00 31.03                                                             
C 29.52  0.00 44.82                                                             
C 29.52  0.00 58.62                                                             
C  9.39 16.27  3.45                                                             
C  9.39 16.27 17.24                                                             
C  9.39 16.27 31.03                                                             
C  9.39 16.27 44.82                                                             
C  9.39 16.27 58.62                                                             
C 13.42 13.95  3.45                                                             
C 13.42 13.95 17.24                                                             
C 13.42 13.95 31.03                                                             
C 13.42 13.95 44.82                                                             
C 13.42 13.95 58.62                                                             
C 17.45 11.62  3.45                                                             
C 17.45 11.62 17.24                                                             
C 17.45 11.62 31.03                                                             
C 17.45 11.62 44.82                                                             
C 17.45 11.62 58.62                                                             
C 21.47  9.30  3.45                                                             
C 21.47  9.30 17.24                                                             
C 21.47  9.30 31.03                                                             
C 21.47  9.30 44.82                                                             
C 21.47  9.30 58.62                                                             
C 25.50  6.97  3.45                                                             
C 25.50  6.97 17.24                                                             
C 25.50  6.97 31.03                                                             
C 25.50  6.97 44.82                                                             
C 25.50  6.97 58.62                                                             
C 29.52  4.65  3.45                                                             
C 29.52  4.65 17.24                                                             
C 29.52  4.65 31.03                                                             
C 29.52  4.65 44.82                                                             
C 29.52  4.65 58.62                                                             
C 17.45 16.27  3.45                                                             
C 17.45 16.27 17.24                                                             
C 17.45 16.27 31.03                                                             
C 17.45 16.27 44.82                                                             
C 17.45 16.27 58.62                                                             
C 21.47 13.95  3.45                                                             
C 21.47 13.95 17.24                                                             
C 21.47 13.95 31.03                                                             
C 21.47 13.95 44.82                                                             
C 21.47 13.95 58.62                                                             
C 25.50 11.62  3.45                                                             
C 25.50 11.62 17.24                                                             
C 25.50 11.62 31.03                                                             
C 25.50 11.62 44.82                                                             
C 25.50 11.62 58.62                                                             
C 29.52  9.30  3.45                                                             
C 29.52  9.30 17.24                                                             
C 29.52  9.30 31.03                                                             
C 29.52  9.30 44.82                                                             
C 29.52  9.30 58.62                                                             
C 25.50 16.27  3.45                                                             
C 25.50 16.27 17.24                                                             
C 25.50 16.27 31.03                                                             
C 25.50 16.27 44.82                                                             
C 25.50 16.27 58.62                                                             
C 29.52 13.95  3.45                                                             
C 29.52 13.95 17.24                                                             
C 29.52 13.95 31.03                                                             
C 29.52 13.95 44.82                                                             
C 29.52 13.95 58.62                                                             
C  2.68  0.00 10.34                                                             
C  2.68  0.00 24.14                                                             
C  2.68  0.00 37.93                                                             
C  2.68  0.00 51.72                                                             
C  2.68  0.00 65.51                                                             
C  2.68  4.65 10.34                                                             
C  2.68  4.65 24.14                                                             
C  2.68  4.65 37.93                                                             
C  2.68  4.65 51.72                                                             
C  2.68  4.65 65.51                                                             
C  6.71  2.32 10.34                                                             
C  6.71  2.32 24.14                                                             
C  6.71  2.32 37.93                                                             
C  6.71  2.32 51.72                                                             
C  6.71  2.32 65.51                                                             
C 10.74  0.00 10.34                                                             
C 10.74  0.00 24.14                                                             
C 10.74  0.00 37.93                                                             
C 10.74  0.00 51.72                                                             
C 10.74  0.00 65.51                                                             
C  2.68  9.30 10.34                                                             
C  2.68  9.30 24.14                                                             
C  2.68  9.30 37.93                                                             
C  2.68  9.30 51.72                                                             
C  2.68  9.30 65.51                                                             
C  6.71  6.97 10.34                                                             
C  6.71  6.97 24.14                                                             
C  6.71  6.97 37.93                                                             
C  6.71  6.97 51.72                                                             
C  6.71  6.97 65.51                                                             
C 10.74  4.65 10.34                                                             
C 10.74  4.65 24.14                                                             
C 10.74  4.65 37.93                                                             
C 10.74  4.65 51.72                                                             
C 10.74  4.65 65.51                                                             
C 14.76  2.32 10.34                                                             
C 14.76  2.32 24.14                                                             
C 14.76  2.32 37.93                                                             
C 14.76  2.32 51.72                                                             
C 14.76  2.32 65.51                                                             
C 18.79  0.00 10.34                                                             
C 18.79  0.00 24.14                                                             
C 18.79  0.00 37.93                                                             
C 18.79  0.00 51.72                                                             
C 18.79  0.00 65.51                                                             
C  2.68 13.95 10.34                                                             
C  2.68 13.95 24.14                                                             
C  2.68 13.95 37.93                                                             
C  2.68 13.95 51.72                                                             
C  2.68 13.95 65.51                                                             
C  6.71 11.62 10.34                                                             
C  6.71 11.62 24.14                                                             
C  6.71 11.62 37.93                                                             
C  6.71 11.62 51.72                                                             
C  6.71 11.62 65.51                                                             
C 10.74  9.30 10.34                                                             
C 10.74  9.30 24.14                                                             
C 10.74  9.30 37.93                                                             
C 10.74  9.30 51.72                                                             
C 10.74  9.30 65.51                                                             
C 14.76  6.97 10.34                                                             
C 14.76  6.97 24.14                                                             
C 14.76  6.97 37.93                                                             
C 14.76  6.97 51.72                                                             
C 14.76  6.97 65.51                                                             
C 18.79  4.65 10.34                                                             
C 18.79  4.65 24.14                                                             
C 18.79  4.65 37.93                                                             
C 18.79  4.65 51.72                                                             
C 18.79  4.65 65.51                                                             
C 22.81  2.32 10.34                                                             
C 22.81  2.32 24.14                                                             
C 22.81  2.32 37.93                                                             
C 22.81  2.32 51.72                                                             
C 22.81  2.32 65.51                                                             
C 26.84  0.00 10.34                                                             
C 26.84  0.00 24.14                                                             
C 26.84  0.00 37.93                                                             
C 26.84  0.00 51.72                                                             
C 26.84  0.00 65.51                                                             
C  6.71 16.27 10.34                                                             
C  6.71 16.27 24.14                                                             
C  6.71 16.27 37.93                                                             
C  6.71 16.27 51.72                                                             
C  6.71 16.27 65.51                                                             
C 10.74 13.95 10.34                                                             
C 10.74 13.95 24.14                                                             
C 10.74 13.95 37.93                                                             
C 10.74 13.95 51.72                                                             
C 10.74 13.95 65.51                                                             
C 14.76 11.62 10.34                                                             
C 14.76 11.62 24.14                                                             
C 14.76 11.62 37.93                                                             
C 14.76 11.62 51.72                                                             
C 14.76 11.62 65.51                                                             
C 18.79  9.30 10.34                                                             
C 18.79  9.30 24.14                                                             
C 18.79  9.30 37.93                                                             
C 18.79  9.30 51.72                                                             
C 18.79  9.30 65.51                                                             
C 22.81  6.97 10.34                                                             
C 22.81  6.97 24.14                                                             
C 22.81  6.97 37.93                                                             
C 22.81  6.97 51.72                                                             
C 22.81  6.97 65.51                                                             
C 26.84  4.65 10.34                                                             
C 26.84  4.65 24.14                                                             
C 26.84  4.65 37.93                                                             
C 26.84  4.65 51.72                                                             
C 26.84  4.65 65.51                                                             
C 30.86  2.32 10.34                                                             
C 30.86  2.32 24.14                                                             
C 30.86  2.32 37.93                                                             
C 30.86  2.32 51.72                                                             
C 30.86  2.32 65.51                                                             
C 14.76 16.27 10.34                                                             
C 14.76 16.27 24.14                                                             
C 14.76 16.27 37.93                                                             
C 14.76 16.27 51.72                                                             
C 14.76 16.27 65.51                                                             
C 18.79 13.95 10.34                                                             
C 18.79 13.95 24.14                                                             
C 18.79 13.95 37.93                                                             
C 18.79 13.95 51.72                                                             
C 18.79 13.95 65.51                                                             
C 22.81 11.62 10.34                                                             
C 22.81 11.62 24.14                                                             
C 22.81 11.62 37.93                                                             
C 22.81 11.62 51.72                                                             
C 22.81 11.62 65.51                                                             
C 26.84  9.30 10.34                                                             
C 26.84  9.30 24.14                                                             
C 26.84  9.30 37.93                                                             
C 26.84  9.30 51.72                                                             
C 26.84  9.30 65.51                                                             
C 30.86  6.97 10.34                                                             
C 30.86  6.97 24.14                                                             
C 30.86  6.97 37.93                                                             
C 30.86  6.97 51.72                                                             
C 30.86  6.97 65.51                                                             
C 22.81 16.27 10.34                                                             
C 22.81 16.27 24.14                                                             
C 22.81 16.27 37.93                                                             
C 22.81 16.27 51.72                                                             
C 22.81 16.27 65.51                                                             
C 26.84 13.95 10.34                                                             
C 26.84 13.95 24.14                                                             
C 26.84 13.95 37.93                                                             
C 26.84 13.95 51.72                                                             
C 26.84 13.95 65.51                                                             
C 30.86 11.62 10.34                                                             
C 30.86 11.62 24.14                                                             
C 30.86 11.62 37.93                                                             
C 30.86 11.62 51.72                                                             
C 30.86 11.62 65.51                                                             
C 30.86 16.27 10.34                                                             
C 30.86 16.27 24.14                                                             
C 30.86 16.27 37.93                                                             
C 30.86 16.27 51.72                                                             
C 30.86 16.27 65.51                                                             
%ENDBLOCK POSITIONS_ABS                                                         

--------------------------------------------------------------------------------
-------------------------------- END INPUT FILE --------------------------------
--------------------------------------------------------------------------------


 
<<<<<<<<<<<<<<<<<<<<<<<<<<<<<<<<< Full system >>>>>>>>>>>>>>>>>>>>>>>>>>>>>>>>>>
<<<<<<<<<<<<<<<<<<<<<<<<<<< PAW Dataset information >>>>>>>>>>>>>>>>>>>>>>>>>>>
File: ~/pp/paw/c_pbe_abinit.paw; rc = 1.25 bohr; shape type =  3; rshape = 1.25 bohr;
  Atomic number:  6;  ionic charge:  4.000000
    Partial Wave 1: l = 0
    Partial Wave 2: l = 0
    Partial Wave 3: l = 1
    Partial Wave 4: l = 1
  Core charge supplied for Nonlinear Core Corrections
<<<<<<<<<<<<<<<<<<<<<<<<<<<<<<<<<<<<<<< >>>>>>>>>>>>>>>>>>>>>>>>>>>>>>>>>>>>>>>

-------------------------- Atom counting information ---------------------------
Symbol    Natoms    Nngwfs    Nprojs
  C        640      2560      5120
.......   ......    ......    ......
Totals:    640      2560      5120
--------------------------------------------------------------------------------

=============================== PSINC grid sizes ===============================
                      Simulation cell:   63 x  35 x 136
                              FFT-box:   63 x  35 x 117
                                  PPD:    7 x   5 x   1
Grid space d1=  0.511269841270a0 (KE cutoff=  29.06054Eh = 790.77748eV)
Grid space d2=  0.531142857143a0 (KE cutoff=  26.92659Eh = 732.70972eV)
Grid space d3=  0.507058823529a0 (KE cutoff=  29.54523Eh = 803.96650eV)
================================================================================
  
WARNING in cell_grid_distribute:
Average of less than one 23-slab per node, so workload cannot be
equally balanced between nodes.

********************* Fourier parallelisation information **********************
       Coarse grid (whole simulation cell) dimensions:     63    35   136
          Real-space ('12') slabs/node (min max mean):      3     4     3
         Recip-space ('23') slabs/node (min max mean):      0     1     0
********************************************************************************

********************* Fourier parallelisation information **********************
       Double grid (whole simulation cell) dimensions:    126    70   272
          Real-space ('12') slabs/node (min max mean):      6     7     6
         Recip-space ('23') slabs/node (min max mean):      1     2     1
********************************************************************************

Atom SCF Calculation for C  : Z (AE atom) =   6 : Z (PS atom) =   4
Config String: 2s2 2p2
Orbitals (num,occ):  2     2.00 2.00
Orbitals   (num,l):  2        0    1
Real-space Grid (nr,dr,rmax): 1293    0.0069659443    9.0000000000
Spherical Bessel Basis (nsws,lmax,cutoff):   37    2  161.4736382572
Confining potential (l,width,scale):  0    3.0000000000  100.0000000000
Confining potential (l,width,scale):  1    3.0000000000  100.0000000000
  1         -5.4795203654   -1.3252209296    4.5135257941   -1.6370402169
  2         -5.4480859746   -1.4027979239    4.4305951748   -1.6109819005
  3         -5.4553164790   -1.4212834043    4.4102618304   -1.6059039466
  4         -5.4627841133   -1.4247091338    4.4065122085   -1.6052907585
  5         -5.4662306655   -1.4266814823    4.4043715292   -1.6049352647
  6         -5.4679520247   -1.4277352742    4.4032348712   -1.6047493439
  7         -5.4688359568   -1.4282868030    4.4026432892   -1.6046541449
  8         -5.4692951245   -1.4285734530    4.4023374832   -1.6046056242
  9         -5.4695349887   -1.4287220785    4.4021797781   -1.6045809101
 10         -5.4696606791   -1.4287991022    4.4020984905   -1.6045683155
 11         -5.4697266650   -1.4288390363    4.4020565747   -1.6045618912
 12         -5.4697613504   -1.4288597596    4.4020349416   -1.6045586107
 13         -5.4697795998   -1.4288705262    4.4020237638   -1.6045569335
 14         -5.4697892089   -1.4288761271    4.4020179806   -1.6045560749
 15         -5.4697942720   -1.4288790448    4.4020149844   -1.6045556348
 16         -5.4697969415   -1.4288805668    4.4020134298   -1.6045554088
 17         -5.4697983498   -1.4288813619    4.4020126220   -1.6045552927
 18         -5.4697990933   -1.4288817779    4.4020122017   -1.6045552329
 19         -5.4697994860   -1.4288819957    4.4020119826   -1.6045552021
 20         -5.4697996936   -1.4288821100    4.4020118683   -1.6045551862
 21         -5.4697998034   -1.4288821701    4.4020118085   -1.6045551780
 22         -5.4697998614   -1.4288822017    4.4020117772   -1.6045551737
Atom SCF converged after  22 iterations to a total energy of     -5.46979986

Determining parallel strategy ...
... using space-filling curve
... NGWF load balancing: max     64;  min     64;  average     64
... Projector load balancing: max    128;  min    128;  average    128
... done
Calculating Ewald energy ...
              Ewald: real-space energy =    9482.660030
        Ewald: reciprocal-space energy =       0.258173
         Ewald: (sum_charge)**2 Energy =   11001.050404
         Ewald: (sum_charge**2) Energy =     869.709398
                          Ewald Energy =   -2387.841599
Basis initialisation ...... NGWF spheres initialised
... Projector spheres initialised
... NGWF tight boxes initialised
... Projector tight boxes initialised
... Tight-boxes gathered
... NGWF basis size (local,global):     692724  27900064
... PAW projector initialisation
... done

============================= Charge Augmentation ==============================
                           Aug box size:   11 x  11 x  11
================================================================================

========================== Sparse matrix information ===========================
                        Overlap matrix filling:  40.94%
                        Density kernel filling: 100.00%
              NGWF-Proj overlap matrix filling:  12.19%
                    Aug Overlap matrix filling:  47.03%
                    Hamiltonian matrix filling:  47.03%
                  NGWF diagonal matrix filling:   0.16%
                             KS matrix filling: 100.00% 
                           KSKS matrix filling: 100.00% 
================================================================================

Sparse matrix initialisation ... done
NGWF initialisation ...... done
============ Calculation of NGWF S^-1 using Hotelling algorithm ================ 
         Iteration  |  Frobenius norm and Maximum abs value    (of I-S*S_n^-1)   
               1       0.49004241E+02     0.97525948E+00
               2       0.47740712E+02     0.95237815E+00
               3       0.45859419E+02     0.91129356E+00
               4       0.43439226E+02     0.84330564E+00
               5       0.40552683E+02     0.74285894E+00
               6       0.37209524E+02     0.67660755E+00
               7       0.33742062E+02     0.62926931E+00
               8       0.30428050E+02     0.58927312E+00
               9       0.26851126E+02     0.54458454E+00
              10       0.22302929E+02     0.47396790E+00
              11       0.16382466E+02     0.36241566E+00
              12       0.96084710E+01     0.21708883E+00
              13       0.37913968E+01     0.83352710E-01
              14       0.70851911E+00     0.14186526E-01
              15       0.29803555E-01     0.50903779E-03
              16       0.69715205E-04     0.86472000E-06
              17       0.58352986E-09     0.43395287E-11
              18       0.72174721E-13     0.34416914E-14
================================================================================
Calculating core density ...
================================= Core Density =================================
               Core den box size:   21 x  21 x  21
================================================================================
 ... done
Up spin density kernel initialisation ...... done

Writing density kernel to file "3.6491432_GO_manual_4x64graphite.dkn" ... done

>>> Optimising kernel for current NGWFs:

--------------------------- Ensemble-DFT optimisation --------------------------
Running ScaLAPACK on   40 processor(s).

--------------------------------------------------------------------------------
  Iter                              Commutator    Free_energy(A=E-TS)     DeltaA
#    0                          0.000034524412   -3649.28517307018819  -3.65E+03

Step                       =       0.381966011250
Energy                     =   -3649.285146129519
Entropy (-TS)              =      -0.000026940522
Free energy (A=E-TS)       =   -3649.285173070188
Est. 0K Energy 0.5*(E+A)   =   -3649.285159599854
Residual Non-orthogonality =       0.000000000000
Residual N_electrons       =      -0.000000000148

Spin          Integrated_Ne            Fermi_level     Delta_Fermi_level
   1      2560.000000000859         0.172376347479              1.72E-01

                           Spin 1          
     Orb      H-eigenvalues     Occupancies
       1 |    -0.5514162114    1.0000000000 | 
                          ------
    1276 |     0.1374753400    0.9999836435 | 
    1277 |     0.1380861417    0.9999801640 | 
    1278 |     0.1381042518    0.9999800502 | 
    1279 |     0.1382859246    0.9999788723 | 
    1280 |     0.1389142744    0.9999742355 | 
                 - Gap at zero temperature -
    1281 |     0.2083211924    0.0000117636 | 
    1282 |     0.2083367252    0.0000117061 | 
    1283 |     0.2083403359    0.0000116928 | 
    1284 |     0.2085111063    0.0000110789 | 
    1285 |     0.2085335534    0.0000110007 | 
                          ------
    2560 |     1.0065874493    0.0000000000 | 

                       |  Abs_value |  Threshold | Converged
     Delta_Free_energy |   3.65E+03 |   1.00E-06 |        No
     Delta_Energy      |   3.65E+03 |   1.00E-04 |        No
     Delta_Entropy     |   2.69E-05 |   1.00E-04 |       Yes
     Commutator        |   3.45E-05 |   1.00E-05 |        No
     Delta_Fermi_level |   1.72E-01 |   1.00E-03 |        No

  Line search of the free energy minimum:
  Step_type        Step             Free_energy   Predicted_free_energy
.   Initial    0.000000    -3649.28517307018819
.    Trial1    0.381966    -3649.28644887756764
.    Trial2    0.618034    -3649.28665872165902
. Quadratic    0.612064    -3649.28665884047177    -3649.28665886303452

--------------------------------------------------------------------------------
  Iter                              Commutator    Free_energy(A=E-TS)     DeltaA
#    1                          0.000019581303   -3649.28665884047177  -1.49E-03

Step                       =       0.612063576450
Energy                     =   -3649.286632206036
Entropy (-TS)              =      -0.000026634455
Free energy (A=E-TS)       =   -3649.286658840472
Est. 0K Energy 0.5*(E+A)   =   -3649.286645523254
Residual Non-orthogonality =       0.000000000000
Residual N_electrons       =       0.000000000019

Spin          Integrated_Ne            Fermi_level     Delta_Fermi_level
   1      2559.999999999888         0.171816054600             -5.60E-04

                           Spin 1          
     Orb      H-eigenvalues     Occupancies
       1 |    -0.5537407122    1.0000000000 | 
                          ------
    1276 |     0.1369558853    0.9999834312 | 
    1277 |     0.1374110642    0.9999808701 | 
    1278 |     0.1374245497    0.9999807884 | 
    1279 |     0.1377684126    0.9999785850 | 
    1280 |     0.1382363179    0.9999751752 | 
                 - Gap at zero temperature -
    1281 |     0.2077342604    0.0000118630 | 
    1282 |     0.2077520495    0.0000117966 | 
    1283 |     0.2077583711    0.0000117730 | 
    1284 |     0.2079195529    0.0000111888 | 
    1285 |     0.2079502407    0.0000110809 | 
                          ------
    2560 |     1.0054037931    0.0000000000 | 

                       |  Abs_value |  Threshold | Converged
     Delta_Free_energy |   1.49E-03 |   1.00E-06 |        No
     Delta_Energy      |   1.49E-03 |   1.00E-04 |        No
     Delta_Entropy     |   3.06E-07 |   1.00E-04 |       Yes
     Commutator        |   1.96E-05 |   1.00E-05 |        No
     Delta_Fermi_level |   5.60E-04 |   1.00E-03 |       Yes

  Line search of the free energy minimum:
  Step_type        Step             Free_energy   Predicted_free_energy
.   Initial    0.000000    -3649.28665884047177
.    Trial1    0.612064    -3649.28625360697879
.    Trial2    0.233787    -3649.28700694267491
. Quadratic    0.247816    -3649.28700803933179    -3649.28700806182269

--------------------------------------------------------------------------------
  Iter                              Commutator    Free_energy(A=E-TS)     DeltaA
#    2                          0.000010176883   -3649.28700803933179  -3.49E-04

Step                       =       0.247816372331
Energy                     =   -3649.286981466075
Entropy (-TS)              =      -0.000026573446
Free energy (A=E-TS)       =   -3649.287008039332
Est. 0K Energy 0.5*(E+A)   =   -3649.286994752703
Residual Non-orthogonality =       0.000000000000
Residual N_electrons       =       0.000000000190

Spin          Integrated_Ne            Fermi_level     Delta_Fermi_level
   1      2559.999999998895         0.171727377783             -8.87E-05

                           Spin 1          
     Orb      H-eigenvalues     Occupancies
       1 |    -0.5541089924    1.0000000000 | 
                          ------
    1276 |     0.1368283995    0.9999836330 | 
    1277 |     0.1373375089    0.9999807785 | 
    1278 |     0.1373508900    0.9999806971 | 
    1279 |     0.1376394726    0.9999788555 | 
    1280 |     0.1381612420    0.9999750684 | 
                 - Gap at zero temperature -
    1281 |     0.2076735270    0.0000117588 | 
    1282 |     0.2076900464    0.0000116976 | 
    1283 |     0.2076971611    0.0000116714 | 
    1284 |     0.2078636118    0.0000110738 | 
    1285 |     0.2078924690    0.0000109733 | 
                          ------
    2560 |     1.0052106213    0.0000000000 | 

                       |  Abs_value |  Threshold | Converged
     Delta_Free_energy |   3.49E-04 |   1.00E-06 |        No
     Delta_Energy      |   3.49E-04 |   1.00E-04 |        No
     Delta_Entropy     |   6.10E-08 |   1.00E-04 |       Yes
     Commutator        |   1.02E-05 |   1.00E-05 |        No
     Delta_Fermi_level |   8.87E-05 |   1.00E-03 |       Yes

  Line search of the free energy minimum:
  Step_type        Step             Free_energy   Predicted_free_energy
.   Initial    0.000000    -3649.28700803933179
.    Trial1    0.247816    -3649.28709338201406
.    Trial2    0.535125    -3649.28709947106199
. Quadratic    0.409017    -3649.28710906486594    -3649.28710907578215

--------------------------------------------------------------------------------
  Iter                              Commutator    Free_energy(A=E-TS)     DeltaA
#    3                          0.000006913694   -3649.28710906486594  -1.01E-04

Step                       =       0.409016511979
Energy                     =   -3649.287082568118
Entropy (-TS)              =      -0.000026496481
Free energy (A=E-TS)       =   -3649.287109064866
Est. 0K Energy 0.5*(E+A)   =   -3649.287095816492
Residual Non-orthogonality =       0.000000000000
Residual N_electrons       =      -0.000000000265

Spin          Integrated_Ne            Fermi_level     Delta_Fermi_level
   1      2560.000000001546         0.171615652170             -1.12E-04

                           Spin 1          
     Orb      H-eigenvalues     Occupancies
       1 |    -0.5545572147    1.0000000000 | 
                          ------
    1276 |     0.1366909368    0.9999837655 | 
    1277 |     0.1372258931    0.9999807778 | 
    1278 |     0.1372391389    0.9999806973 | 
    1279 |     0.1375009361    0.9999790338 | 
    1280 |     0.1380484384    0.9999750768 | 
                 - Gap at zero temperature -
    1281 |     0.2075809396    0.0000116880 | 
    1282 |     0.2075964596    0.0000116308 | 
    1283 |     0.2076041357    0.0000116027 | 
    1284 |     0.2077747363    0.0000109942 | 
    1285 |     0.2078012989    0.0000109023 | 
                          ------
    2560 |     1.0049919260    0.0000000000 | 

                       |  Abs_value |  Threshold | Converged
     Delta_Free_energy |   1.01E-04 |   1.00E-06 |        No
     Delta_Energy      |   1.01E-04 |   1.00E-04 |        No
     Delta_Entropy     |   7.70E-08 |   1.00E-04 |       Yes
     Commutator        |   6.91E-06 |   1.00E-05 |       Yes
     Delta_Fermi_level |   1.12E-04 |   1.00E-03 |       Yes

  Line search of the free energy minimum:
  Step_type        Step             Free_energy   Predicted_free_energy
.   Initial    0.000000    -3649.28710906486594
.    Trial1    0.409017    -3649.28713573284904
.    Trial2    0.634752    -3649.28706186418731
. Quadratic    0.257238    -3649.28714998716123    -3649.28714997531415

--------------------------------------------------------------------------------
  Iter                              Commutator    Free_energy(A=E-TS)     DeltaA
#    4                          0.000004347661   -3649.28714998716123  -4.09E-05

Step                       =       0.257237934555
Energy                     =   -3649.287123519253
[...]
 C   275 -- C   555       -0.10      5.37000
 C   274 -- C   554       -0.10      5.37000
 C   273 -- C   553       -0.10      5.37000
 C   272 -- C   552       -0.10      5.37000
 C   271 -- C   551       -0.10      5.37000
 C   270 -- C   550       -0.10      5.37000
 C   269 -- C   549       -0.10      5.37000
 C   268 -- C   548       -0.10      5.37000
 C   267 -- C   547       -0.10      5.37000
 C   266 -- C   546       -0.10      5.37000
 C   130 -- C   465       -0.10      5.37000
 C   129 -- C   464       -0.10      5.37000
 C   128 -- C   463       -0.10      5.37000
 C   127 -- C   462       -0.10      5.37000
 C   126 -- C   461       -0.10      5.37000
 C   240 -- C   525       -0.10      5.37000
 C   239 -- C   524       -0.10      5.37000
 C   238 -- C   523       -0.10      5.37000
 C   237 -- C   522       -0.10      5.37000
 C   236 -- C   521       -0.10      5.37000
 C    23 -- C   478       -0.10      5.37202
 C    49 -- C   469       -0.10      5.37202
 C    48 -- C   468       -0.10      5.37202
 C    47 -- C   467       -0.10      5.37202
 C    22 -- C   477       -0.10      5.37202
 C    46 -- C   466       -0.10      5.37202
 C    21 -- C   476       -0.10      5.37202
 C    25 -- C   480       -0.10      5.37202
 C    24 -- C   479       -0.10      5.37202
 C    50 -- C   470       -0.10      5.37202
 C    24 -- C   449       -0.10      5.37202
 C     6 -- C   416       -0.10      5.37202
 C    23 -- C   448       -0.10      5.37202
 C    22 -- C   447       -0.10      5.37202
 C    10 -- C   470       -0.10      5.37202
 C     5 -- C   450       -0.10      5.37202
 C    21 -- C   446       -0.10      5.37202
 C    10 -- C   420       -0.10      5.37202
 C     9 -- C   469       -0.10      5.37202
 C     9 -- C   419       -0.10      5.37202
 C     8 -- C   468       -0.10      5.37202
 C     4 -- C   449       -0.10      5.37202
 C     8 -- C   418       -0.10      5.37202
 C   285 -- C   580       -0.10      5.37202
 C   284 -- C   579       -0.10      5.37202
 C   283 -- C   578       -0.10      5.37202
 C   282 -- C   577       -0.10      5.37202
 C   281 -- C   576       -0.10      5.37202
 C     2 -- C   447       -0.10      5.37202
 C     7 -- C   467       -0.10      5.37202
 C   260 -- C   605       -0.10      5.37202
 C   259 -- C   604       -0.10      5.37202
 C   258 -- C   603       -0.10      5.37202
 C   257 -- C   602       -0.10      5.37202
 C   256 -- C   601       -0.10      5.37202
 C     7 -- C   417       -0.10      5.37202
 C     1 -- C   446       -0.10      5.37202
 C     6 -- C   466       -0.10      5.37202
 C    25 -- C   450       -0.10      5.37202
 C     3 -- C   448       -0.10      5.37202
 C   219 -- C   569       -0.10      5.37202
 C   218 -- C   568       -0.10      5.37202
 C   217 -- C   567       -0.10      5.37202
 C   216 -- C   566       -0.10      5.37202
 C   250 -- C   540       -0.10      5.37202
 C   249 -- C   539       -0.10      5.37202
 C   248 -- C   538       -0.10      5.37202
 C   247 -- C   537       -0.10      5.37202
 C   246 -- C   536       -0.10      5.37202
 C   220 -- C   570       -0.10      5.37202
 C   205 -- C   550       -0.10      5.37202
 C   204 -- C   549       -0.10      5.37202
 C   203 -- C   548       -0.10      5.37202
 C   202 -- C   547       -0.10      5.37202
 C   201 -- C   546       -0.10      5.37202
 C    95 -- C   365       -0.10      5.37202
 C    94 -- C   364       -0.10      5.37202
 C    93 -- C   363       -0.10      5.37202
 C    92 -- C   362       -0.10      5.37202
 C    91 -- C   361       -0.10      5.37202
 C    65 -- C   395       -0.10      5.37202
 C    64 -- C   394       -0.10      5.37202
 C    63 -- C   393       -0.10      5.37202
 C    30 -- C   355       -0.10      5.37202
 C    62 -- C   392       -0.10      5.37202
 C    61 -- C   391       -0.10      5.37202
 C    29 -- C   354       -0.10      5.37202
 C   260 -- C   550       -0.10      5.37202
 C   259 -- C   549       -0.10      5.37202
 C    28 -- C   353       -0.10      5.37202
 C   258 -- C   548       -0.10      5.37202
 C   257 -- C   547       -0.10      5.37202
 C   256 -- C   546       -0.10      5.37202
 C    27 -- C   352       -0.10      5.37202
 C    26 -- C   351       -0.10      5.37202
 C    55 -- C   335       -0.10      5.37202
 C    54 -- C   334       -0.10      5.37202
 C    53 -- C   333       -0.10      5.37202
 C   230 -- C   580       -0.10      5.37202
 C   230 -- C   525       -0.10      5.37202
 C   229 -- C   579       -0.10      5.37202
 C   229 -- C   524       -0.10      5.37202
 C   228 -- C   578       -0.10      5.37202
 C    52 -- C   332       -0.10      5.37202
 C   228 -- C   523       -0.10      5.37202
 C   227 -- C   577       -0.10      5.37202
 C   227 -- C   522       -0.10      5.37202
 C   226 -- C   576       -0.10      5.37202
 C   226 -- C   521       -0.10      5.37202
 C    51 -- C   331       -0.10      5.37202
 C   220 -- C   515       -0.10      5.37202
 C   219 -- C   514       -0.10      5.37202
 C   218 -- C   513       -0.10      5.37202
 C   217 -- C   512       -0.10      5.37202
 C   216 -- C   511       -0.10      5.37202
 C   195 -- C   540       -0.10      5.37202
 C   195 -- C   500       -0.10      5.37202
 C   194 -- C   539       -0.10      5.37202
 C   194 -- C   499       -0.10      5.37202
 C   193 -- C   538       -0.10      5.37202
 C   193 -- C   498       -0.10      5.37202
 C   192 -- C   537       -0.10      5.37202
 C   192 -- C   497       -0.10      5.37202
 C   191 -- C   536       -0.10      5.37202
 C   191 -- C   496       -0.10      5.37202
 C   180 -- C   515       -0.10      5.37202
 C   179 -- C   514       -0.10      5.37202
 C   178 -- C   513       -0.10      5.37202
 C   177 -- C   512       -0.10      5.37202
 C   176 -- C   511       -0.10      5.37202
 C   150 -- C   440       -0.10      5.37202
 C   149 -- C   439       -0.10      5.37202
 C   148 -- C   438       -0.10      5.37202
 C   147 -- C   437       -0.10      5.37202
 C   146 -- C   436       -0.10      5.37202
 C   135 -- C   460       -0.10      5.37202
 C   134 -- C   459       -0.10      5.37202
 C   133 -- C   458       -0.10      5.37202
 C   132 -- C   457       -0.10      5.37202
 C   131 -- C   456       -0.10      5.37202
 C    11 -- C   331       -0.10      5.37202
 C    95 -- C   425       -0.10      5.37202
 C    94 -- C   424       -0.10      5.37202
 C    93 -- C   423       -0.10      5.37202
 C    92 -- C   422       -0.10      5.37202
 C    91 -- C   421       -0.10      5.37202
 C    85 -- C   355       -0.10      5.37202
 C    40 -- C   365       -0.10      5.37202
 C    84 -- C   354       -0.10      5.37202
 C    83 -- C   353       -0.10      5.37202
 C    82 -- C   352       -0.10      5.37202
 C    39 -- C   364       -0.10      5.37202
 C    81 -- C   351       -0.10      5.37202
 C    38 -- C   363       -0.10      5.37202
 C    37 -- C   362       -0.10      5.37202
 C    36 -- C   361       -0.10      5.37202
 C    15 -- C   335       -0.10      5.37202
 C    65 -- C   345       -0.10      5.37202
 C    64 -- C   344       -0.10      5.37202
 C    63 -- C   343       -0.10      5.37202
 C    30 -- C   325       -0.10      5.37202
 C    62 -- C   342       -0.10      5.37202
 C    14 -- C   334       -0.10      5.37202
 C    61 -- C   341       -0.10      5.37202
 C    29 -- C   324       -0.10      5.37202
 C    28 -- C   323       -0.10      5.37202
 C    13 -- C   333       -0.10      5.37202
 C    27 -- C   322       -0.10      5.37202
 C   120 -- C   395       -0.10      5.37202
 C    55 -- C   385       -0.10      5.37202
 C   119 -- C   394       -0.10      5.37202
 C   118 -- C   393       -0.10      5.37202
 C   117 -- C   392       -0.10      5.37202
 C    54 -- C   384       -0.10      5.37202
 C    26 -- C   321       -0.10      5.37202
 C   116 -- C   391       -0.10      5.37202
 C    53 -- C   383       -0.10      5.37202
 C    12 -- C   332       -0.10      5.37202
 C    52 -- C   382       -0.10      5.37202
 C    51 -- C   381       -0.10      5.37202
 C   106 -- C   436       -0.10      5.37202
 C   106 -- C   376       -0.10      5.37202
 C    80 -- C   410       -0.10      5.37202
 C    79 -- C   409       -0.10      5.37202
 C    78 -- C   408       -0.10      5.37202
 C    77 -- C   407       -0.10      5.37202
 C    76 -- C   406       -0.10      5.37202
 C   135 -- C   410       -0.10      5.37202
 C   134 -- C   409       -0.10      5.37202
 C   133 -- C   408       -0.10      5.37202
 C   132 -- C   407       -0.10      5.37202
 C   131 -- C   406       -0.10      5.37202
 C   110 -- C   440       -0.10      5.37202
 C   110 -- C   380       -0.10      5.37202
 C   109 -- C   439       -0.10      5.37202
 C   109 -- C   379       -0.10      5.37202
 C   108 -- C   438       -0.10      5.37202
 C   108 -- C   378       -0.10      5.37202
 C   107 -- C   437       -0.10      5.37202
 C   107 -- C   377       -0.10      5.37202
 C   215 -- C   635       -0.10      5.38000
 C   214 -- C   634       -0.10      5.38000
 C   213 -- C   633       -0.10      5.38000
 C   212 -- C   632       -0.10      5.38000
 C   211 -- C   631       -0.10      5.38000
 C   190 -- C   620       -0.10      5.38000
 C   189 -- C   619       -0.10      5.38000
 C   188 -- C   618       -0.10      5.38000
 C   187 -- C   617       -0.10      5.38000
 C   186 -- C   616       -0.10      5.38000
 C   175 -- C   595       -0.10      5.38000
 C   174 -- C   594       -0.10      5.38000
 C   173 -- C   593       -0.10      5.38000
 C   172 -- C   592       -0.10      5.38000
 C   171 -- C   591       -0.10      5.38000
 C   245 -- C   640       -0.10      5.38000
 C   244 -- C   639       -0.10      5.38000
 C   243 -- C   638       -0.10      5.38000
 C   242 -- C   637       -0.10      5.38000
 C   241 -- C   636       -0.10      5.38000
==================================================


=================== Orbital energy and occupancy information ===================

      Total number of orbitals:    2560
        Occupancy sum (kernel):    1280.000000000
   Occupancy sum (eigenvalues):    1280.000000000
                 HOMO-LUMO gap:       0.000003058 Eh
                 Mid-gap level:       0.258763671 Eh

                        Orbital | Energy (Eh) | Occupancy
                            1    -0.496141112   1.0000000
                        .......   ...........   .........
                         1272     0.188271696   0.9999890
                         1273     0.188704156   0.9999874
                         1274     0.188743404   0.9999872
                         1275     0.191396818   0.9999704
                         1276     0.191407357   0.9999703
                         1277     0.191865115   0.9999657
                         1278     0.191875536   0.9999656
                         1279     0.192389369   0.9999595
                         1280     0.192853911   0.9999531
                         1281     0.258762143   0.0000194
                        ....... -- gap at 0K -- .........
                         1282     0.258765200   0.0000194
                         1283     0.259012359   0.0000179
                         1284     0.259015029   0.0000179
                         1285     0.259119393   0.0000174
                         1286     0.259126996   0.0000173
                         1287     0.259380509   0.0000160
                         1288     0.259388009   0.0000160
                         1289     0.259405087   0.0000159
                         1290     0.259576363   0.0000150
                         1291     0.259590287   0.0000149
                        .......   ...........   .........
                         2560     1.119125741   0.0000000

================================================================================

===================== Writing canonical molecular orbitals =====================
| Orbital  Energy (eV)  Norm     |
| HOMO      7.04127618  1.000000 | Writing "3.6491432_GO_manual_4x64graphite_HOMO.cube" ... done
Writing "3.6491432_GO_manual_4x64graphite_HOMO.dx" ... done
| LUMO      7.04135938  1.000000 | Writing "3.6491432_GO_manual_4x64graphite_LUMO.cube" ... done
Writing "3.6491432_GO_manual_4x64graphite_LUMO.dx" ... done
================================================================================
 
===================== Density of States (DOS) calculation ======================
Writing "3.6491432_GO_manual_4x64graphite_DOS.txt" ...  done
================================================================================
 
Writing bands to file "3.6491432_GO_manual_4x64graphite.val_bands" ... done
 
================ Projected Density of States (pDOS) calculation ================
 
Constructing AM resolved functions  ...... done
Writing NGWF plot files in formats: CUBE DX ...  done
 
Performing overlap integrals ...  done
 
Computing pDOS weights ...  done
 
All bands spilling parameter =   3.25 %
Occupancy-weighted spilling parameter =   0.92 %
 
 => Outputting data for OptaDOS <=
 
Writing pDOS weights to file "3.6491432_GO_manual_4x64graphite.val_pdos_bin" ... done
 
Writing band gradients to file "3.6491432_GO_manual_4x64graphite.val_dome_bin" ... done
 
Writing Castep output cell file to "3.6491432_GO_manual_4x64graphite-out.cell" ... done
 
 => Computing Gaussian smeared pDOS <= 
Writing "3.6491432_GO_manual_4x64graphite_PDOS.txt" ...  done
 
 => Computing Occupancy-weighted Gaussian smeared pDOS <= 
Writing "3.6491432_GO_manual_4x64graphite_occ_PDOS.txt" ...  done
  => Band centres: 
 S band centre of group 1:  -15.598564 eV
 P band centre of group 1:   -8.478730 eV
  Band centres done. <=
  => Integrated number of electrons in each AM band: 
 S num electrons of group 1:  575.471910
 P num electrons of group 1: 1960.854549
  Integrated number of electrons done. <=
================================================================================

------------------------------ TIMING INFORMATION ------------------------------
AVERAGE TIME:    3264.437s on     40 node(s)                                    
TOTAL TIME:      3264.437s on     40 node(s)                                    
================= AVERAGE TIMINGS FROM ALL NODES (CUMULATIVE) ==================
|| TAG                                    #calls    cpu time   %total  Gflops ||
|| work_imbalance                       :     1        0.00s   0.000%  ------ ||
|| paw_tcore_hartree_on_grid            :     1        0.00s   0.000%  ------ ||
|| paw_tcore_density                    :     1        0.01s   0.000%  ------ ||
|| paw_sphere_density_on_grid           :     1        0.01s   0.000%  ------ ||
|| sparse_set_to_garbage                :   147        0.02s   0.001%  ------ ||
|| paw_dij_hartree                      :   299        0.04s   0.001%  ------ ||
|| pseudo_make_structure_factor         :     1        0.06s   0.002%  ------ ||
|| basis_extract_function_from_box      :  1664        0.07s   0.002%  ------ ||
|| paw_species_calc_proj_prec_mat       :     1        0.12s   0.004%  ------ ||
|| paw_dataset_init                     :     1        0.15s   0.005%  ------ ||
|| density_init_guess_real              :     1        0.18s   0.006%  ------ ||
|| ngwfs_initialise_from_radial         :     2        0.67s   0.020%  ------ ||
|| restart_kernel_write                 :    14        0.75s   0.023%  ------ ||
|| sparse_init                          :     1        0.91s   0.028%  ------ ||
|| dense_normal_eigensolve              :     1        1.01s   0.031%  ------ ||
|| hartree_on_grid                      :   224        1.28s   0.039%  ------ ||
|| projectors_init_fftbox_recip         :   131        2.61s   0.080%  ------ ||
|| ewald_calculate_energy               :     1        3.05s   0.094%  ------ ||
|| fourier_apply_box_pair               :  2464        4.11s   0.126% 555.535 ||
|| basis_copy_function_to_box           : 21376        4.49s   0.137%  ------ ||
|| augmentation_screen_dij              :   229        5.13s   0.157%  ------ ||
|| sw_init                              :     1        6.74s   0.206%  ------ ||
|| sparse_embed_hotelling_invert_embed  :    25        7.15s   0.219%  ------ ||
|| ngwf_gradient_coeffs                 :    13        9.13s   0.280%  ------ ||
|| fourier_apply_cell_backward          :  6915       14.36s   0.440%  61.864 ||
|| sparse_trace                         :  2704       14.88s   0.456%  ------ ||
|| fourier_apply_cell_forward           :  6468       15.16s   0.464%  54.813 ||
|| cell_grid_extract_box_real           :  9052       17.95s   0.550%  ------ ||
|| paw_dij_xc                           :   299       20.11s   0.616%  ------ ||
|| cell_grid_deposit_box_real           : 28848       22.76s   0.697%  ------ ||
|| aug_nonlocal_mat                     :   286       29.30s   0.897%  ------ ||
|| augmentation_density_on_grid         :   224       38.46s   1.178%  ------ ||
|| hamiltonian_energy_components        :     3       45.94s   1.407%  ------ ||
|| density_fftbox_deposit_to_cell       : 14336       47.72s   1.462%  ------ ||
|| function_ops_brappd_ketppd           :    52       51.35s   1.573%  ------ ||
|| eigenstates_pdos                     :     1       53.72s   1.645%  ------ ||
|| projectors_func_ovlp_box             :    26       56.92s   1.744%  ------ ||
|| eigenstates_calculate                :     1       58.04s   1.778%  ------ ||
|| nlxc_vdw_energy                      :   446       61.31s   1.878%  ------ ||
|| xc_energy_potential                  :   223       67.80s   2.077%  ------ ||
|| integrals_kinetic                    :    25       79.46s   2.434%  ------ ||
|| dense_eigensolve                     :   195       97.82s   2.997%  ------ ||
|| properties_calculate                 :     1      105.51s   3.232%  ------ ||
|| sparse_product                       :  2753      107.57s   3.295%  ------ ||
|| potential_apply_to_ngwf_batch        :   284      113.29s   3.470%  ------ ||
|| restart_ngwfs_tightbox_output        :    12      132.06s   4.045%  ------ ||
|| basis_dot_function_with_box          : 6.640M     178.42s   5.465%  ------ ||
|| fourier_apply_box                    : 67392      210.10s   6.436% 974.209 ||
|| edft_diag_ngwf_ham                   :   194      217.13s   6.651%  ------ ||
|| projectors_gradient_batch            :    52      230.89s   7.073%  ------ ||
|| integrals_locpot_mat_els_batch       :   284      231.79s   7.101%  ------ ||
|| density_fftbox_interpolate_multiply  : 14336      275.48s   8.439%  ------ ||
|| projectors_grad_precond_batch        :    52      324.94s   9.954%  ------ ||
|| integrals_locpot_dbl_grid            :    71      346.38s  10.611%  ------ ||
|| density_batch_interp_deposit         :   896      360.04s  11.029%  ------ ||
|| edft_apply_smearing_operator         :   194      422.97s  12.957%  ------ ||
|| basis_add_function_to_box            : 18.51M     484.50s  14.842%  ------ ||
|| ngwf_gradient_build_batch            :    52      595.89s  18.254%  ------ ||
|| density_batch_row_sums               :   896      654.70s  20.055%  ------ ||
|| ngwf_gradient_batch                  :    52      787.91s  24.136%  ------ ||
|| ngwf_gradient_lnv                    :    13      813.57s  24.922%  ------ ||
|| density_on_dbl_grid                  :   224     1027.14s  31.465%  ------ ||
|| hamiltonian_lhxc_calculate           :   219     1112.21s  34.071%  ------ ||
|| edft_calculate                       :    13     1864.40s  57.112%  ------ ||
|| ngwf_cg_optimise                     :     1     3134.37s  96.016%  ------ ||
|| total_time                           :     1     3264.44s 100.000%  ------ ||
================================================================================
Overhead of generating timer report: 
- 0 ms averaging over threads,
- 5 ms ensuring consistency across MPI ranks,
- 0 ms printing in order.

Job completed: 29-02-2020 10:34 (-0000)

