 +---------------------------------------------------------------+
 |                                                               |
 |        ####### #     # ####### ####### ####### ######         |
 |        #     # ##    # #          #    #       #     #        |
 |        #     # # #   # #          #    #       #     #        |
 |        #     # #  #  # #####      #    #####   ######         |
 |        #     # #   # # #          #    #       #              |
 |        #     # #    ## #          #    #       #              |
 |        ####### #     # #######    #    ####### #              |
 |                                                               |
 |        Linear-Scaling Ab Initio Total Energy Program          |
 |                                                               |
 |          Release for academic collaborators of ODG            |
 |                                             Version 5.3.2.12  |
 |                                                               |
 +---------------------------------------------------------------+
 |                                                               |
 |  Authors:                                                     |
 |  Jacek Dziedzic, Peter D. Haynes, Nicholas D. M. Hine,        |
 |  Arash. A. Mostofi, Mike C. Payne and Chris-Kriton Skylaris   |
 |                                                               |
 |  Contributors:                                                |
 |  J. Aarons, L. Andrinopoulos, P. W. Avraam, R. A. Bell,       |
 |  A. Bhandari, G. A. Bramley, R. J. Charlton, S. J. Clark,     |
 |  R. J. Clements, G. C. Constantinescu, F. Corsetti,           |
 |  N. Corsini, O. Dieguez, S. M. M. Dubois, K. K. B. Duff,      |
 |  J. M. Escartin, A. Greco, H. Helal, Q. O. Hill, L. P. Lee,   |
 |  J.-H. Li, E. B. Linscott, G. Moynihan, D. D. O`Regan,        |
 |  O. K. Okan, M. J. S. Phipps, C. J. Pickard,                  |
 |  J. C. A. Prentice, M. I. J. Probert, L. E. Ratcliff,         |
 |  M. Robinson, A. Ruiz Serrano, J. S. Spencer, E. W. Tait,     |
 |  G. Teobaldi, D. Turban, V. Vitale, K. A. Wilkinson,          |
 |  C. Weber, J. C. Womack, N. Yeung and T. J. Zuehlsdorff       |
 |                                                               |
 |                                   Copyright (c) 2004-2020     |
 |                                                               |
 |  Please cite:                                                 |
 |  "Introducing ONETEP: Linear-scaling density functional       |
 |   simulations on parallel computers".                         |
 |   C.-K. Skylaris, P. D. Haynes, A. A. Mostofi, M. C. Payne.   |
 |   J. Chem. Phys. 122 084119 (2005).                           |
 |                                                               |
 |          in all publications arising from your use of ONETEP. |
 |                                                               |
 +---------------------------------------------------------------+
 |                                                               |
 |   ONETEP is based on developments described in the following  |
 |   publications:                                               |
 |                                                               |
 |  "Nonorthogonal generalized Wannier function pseudopotential  |
 |   plane-wave method".                                         |
 |   C.-K. Skylaris, A. A. Mostofi, P. D. Haynes, O. Dieguez,    |
 |   M. C. Payne.                                                |
 |   Phys. Rev. B 66 035119 (2002).                              |
 |                                                               |
 |  "Preconditioned iterative minimization for linear-scaling    |
 |   electronic structure calculations".                         |
 |   A. A. Mostofi, P. D. Haynes, C.-K. Skylaris, M. C. Payne.   |
 |   J. Chem. Phys. 119(17), pp.8842-8848 (2003).                |
 |                                                               |
 |  "Total-energy calculations on a real space grid with         |
 |   localized functions and a plane-wave basis".                |
 |   A. A. Mostofi, C.-K. Skylaris, P. D. Haynes, M. C. Payne.   |
 |   Comput. Phys. Commun. 147, pp.788-802 (2002).               |
 |                                                               |
 |  "Accurate kinetic energy evaluation in electronic structure  |
 |   calculations with localized functions on real space grids"  |
 |   C.-K. Skylaris, A. A. Mostofi, P. D. Haynes, C. J. Pickard, |
 |   M. C. Payne.                                                |
 |   Comput. Phys. Commun. 140, pp.315-322 (2001).               |
 |                                                               |
 |  "Accurate ionic forces and geometry optimization in linear-  |
 |   scaling density-functional theory with local orbitals"      |
 |   N. D. M. Hine, M. Robinson, P. D. Haynes, C.-K. Skylaris,   |
 |   M. C. Payne, and A. A. Mostofi.                             |
 |   Phys. Rev. B 83 195102 (2011).                              |
 |                                                               |
 +---------------------------------------------------------------+

Job started: 29-02-2020 10:35 (-0000)
 
Reading parameters from file "3.890624_GO_manual_4x64graphite.dat" ...

WARNING: "cutoff_energy" not specified, but "psinc_spacing" specified.
         Using the latter to set the KE cutoff energy to  732.32021eV,
         thus *overriding* the default.

... done

If your calculation crashes here, before "Checking processes and threads..."
is displayed, then your stack size is insufficient.
If so, use "ulimit -s unlimited" at runtime.
You can disable this check with "check_stack_size F".

Checking processes and threads...
   Determining the default number of threads...
      No default threads set at compilation time: defaulting to 1.
      OpenMP library call suggests 4 threads.
      Hybrid MPI-OpenMP compilation detected.
      Number of MPI processes > 1.
      OMP_NUM_THREADS environment variable present and
      its value matches the one obtained from the OpenMP library call.
      Using this value as default.
      Default threads: 4
      Default applies to threads_max and threads_num_fftboxes.
      Settings in the input file override this default.
   ... done

   Running with 40 MPI processes.
   There are 10 MPI processes running on the same node as the root process.
   Each MPI process is using: 
               1 threads for simulation cell FFTs.
               1 threads for parallel FFT box operations.
               4 threads for loops over batched FFT box operations.
               4 threads in other parallel regions.
... done

Basic input checks...
Resetting ngwf_cg_rotate to TRUE for EDFT calculations
... done

Reading geometry and species blocks from file "3.890624_GO_manual_4x64graphite.dat" ...
    
  PSINC grid spacing along a1 set to   0.511215680000a0 from input file.
  PSINC grid spacing along a2 set to   0.531284090000a0 from input file.
  PSINC grid spacing along a3 set to   0.507050270000a0 from input file.
  Number of PPD points along a3 set to 1.  This is 
  the default value, it may have been provided also in the input file.
... done
 Writing xyz coordinates to file "3.890624_GO_manual_4x64graphite.xyz" ... done


--------------------------------------------------------------------------------
---------------------------------- INPUT FILE ----------------------------------
--------------------------------------------------------------------------------

task : singlepoint                                                              
do_properties : true                                                            
dx_format T                                                                     
edft T                                                                          
output_detail VERBOSE                                                           
write_xyz T                                                                     
xc_functional OPTPBE                                                            
PSINC_SPACING 0.51121568 0.53128409 0.50705027                                  
paw T                                                                           
pdos_max_l = 2                                                                  
dos_smear  0.1 eV                                                               
popn_calculate T                                                                
PDOS_PSEUDOATOMIC T                                                             
PDOS_REDUCE_SWS F                                                               
PDOS_CONSTRUCT_BASIS F                                                          
PDOS_LOWDIN T                                                                   
PDOS_ORTH_ATOM_BLOCKS F                                                         
PDOS_LCAO_OPTIMIZE F                                                            
pdos_optados_output T                                                           
homo_plot 0                                                                     
lumo_plot 0                                                                     
homo_dens_plot -1                                                               
lumo_dens_plot -1                                                               
%BLOCK SPECIES                                                                  
C C 6 4 9.0                                                                     
%ENDBLOCK SPECIES                                                               
%BLOCK SPECIES_POT                                                              
C "~/pp/paw/c_pbe_abinit.paw"                                                   
%ENDBLOCK SPECIES_POT                                                           
%BLOCK SPECIES_ATOMIC_SET                                                       
C "SOLVE conf=2s2 2p2"                                                          
%ENDBLOCK SPECIES_ATOMIC_SET                                                    
%BLOCK LATTICE_CART                                                             
32.21  0.00  0.00                                                               
0.00 18.59  0.00                                                                
0.00  0.00 73.52                                                                
%ENDBLOCK LATTICE_CART                                                          
%BLOCK POSITIONS_ABS                                                            
C  0.00  0.00  3.68                                                             
C  0.00  0.00 18.38                                                             
C  0.00  0.00 33.09                                                             
C  0.00  0.00 47.79                                                             
C  0.00  0.00 62.49                                                             
C  0.00  4.65  3.68                                                             
C  0.00  4.65 18.38                                                             
C  0.00  4.65 33.09                                                             
C  0.00  4.65 47.79                                                             
C  0.00  4.65 62.49                                                             
C  4.03  2.32  3.68                                                             
C  4.03  2.32 18.38                                                             
C  4.03  2.32 33.09                                                             
C  4.03  2.32 47.79                                                             
C  4.03  2.32 62.49                                                             
C  8.05  0.00  3.68                                                             
C  8.05  0.00 18.38                                                             
C  8.05  0.00 33.09                                                             
C  8.05  0.00 47.79                                                             
C  8.05  0.00 62.49                                                             
C  0.00  9.30  3.68                                                             
C  0.00  9.30 18.38                                                             
C  0.00  9.30 33.09                                                             
C  0.00  9.30 47.79                                                             
C  0.00  9.30 62.49                                                             
C  4.03  6.97  3.68                                                             
C  4.03  6.97 18.38                                                             
C  4.03  6.97 33.09                                                             
C  4.03  6.97 47.79                                                             
C  4.03  6.97 62.49                                                             
C  8.05  4.65  3.68                                                             
C  8.05  4.65 18.38                                                             
C  8.05  4.65 33.09                                                             
C  8.05  4.65 47.79                                                             
C  8.05  4.65 62.49                                                             
C 12.08  2.32  3.68                                                             
C 12.08  2.32 18.38                                                             
C 12.08  2.32 33.09                                                             
C 12.08  2.32 47.79                                                             
C 12.08  2.32 62.49                                                             
C 16.10  0.00  3.68                                                             
C 16.10  0.00 18.38                                                             
C 16.10  0.00 33.09                                                             
C 16.10  0.00 47.79                                                             
C 16.10  0.00 62.49                                                             
C  0.00 13.95  3.68                                                             
C  0.00 13.95 18.38                                                             
C  0.00 13.95 33.09                                                             
C  0.00 13.95 47.79                                                             
C  0.00 13.95 62.49                                                             
C  4.03 11.62  3.68                                                             
C  4.03 11.62 18.38                                                             
C  4.03 11.62 33.09                                                             
C  4.03 11.62 47.79                                                             
C  4.03 11.62 62.49                                                             
C  8.05  9.30  3.68                                                             
C  8.05  9.30 18.38                                                             
C  8.05  9.30 33.09                                                             
C  8.05  9.30 47.79                                                             
C  8.05  9.30 62.49                                                             
C 12.08  6.97  3.68                                                             
C 12.08  6.97 18.38                                                             
C 12.08  6.97 33.09                                                             
C 12.08  6.97 47.79                                                             
C 12.08  6.97 62.49                                                             
C 16.10  4.65  3.68                                                             
C 16.10  4.65 18.38                                                             
C 16.10  4.65 33.09                                                             
C 16.10  4.65 47.79                                                             
C 16.10  4.65 62.49                                                             
C 20.13  2.32  3.68                                                             
C 20.13  2.32 18.38                                                             
C 20.13  2.32 33.09                                                             
C 20.13  2.32 47.79                                                             
C 20.13  2.32 62.49                                                             
C 24.16  0.00  3.68                                                             
C 24.16  0.00 18.38                                                             
C 24.16  0.00 33.09                                                             
C 24.16  0.00 47.79                                                             
C 24.16  0.00 62.49                                                             
C  4.03 16.27  3.68                                                             
C  4.03 16.27 18.38                                                             
C  4.03 16.27 33.09                                                             
C  4.03 16.27 47.79                                                             
C  4.03 16.27 62.49                                                             
C  8.05 13.95  3.68                                                             
C  8.05 13.95 18.38                                                             
C  8.05 13.95 33.09                                                             
C  8.05 13.95 47.79                                                             
C  8.05 13.95 62.49                                                             
C 12.08 11.62  3.68                                                             
C 12.08 11.62 18.38                                                             
C 12.08 11.62 33.09                                                             
C 12.08 11.62 47.79                                                             
C 12.08 11.62 62.49                                                             
C 16.10  9.30  3.68                                                             
C 16.10  9.30 18.38                                                             
C 16.10  9.30 33.09                                                             
C 16.10  9.30 47.79                                                             
C 16.10  9.30 62.49                                                             
C 20.13  6.97  3.68                                                             
C 20.13  6.97 18.38                                                             
C 20.13  6.97 33.09                                                             
C 20.13  6.97 47.79                                                             
C 20.13  6.97 62.49                                                             
C 24.16  4.65  3.68                                                             
C 24.16  4.65 18.38                                                             
C 24.16  4.65 33.09                                                             
C 24.16  4.65 47.79                                                             
C 24.16  4.65 62.49                                                             
C 28.18  2.32  3.68                                                             
C 28.18  2.32 18.38                                                             
C 28.18  2.32 33.09                                                             
C 28.18  2.32 47.79                                                             
C 28.18  2.32 62.49                                                             
C 12.08 16.27  3.68                                                             
C 12.08 16.27 18.38                                                             
C 12.08 16.27 33.09                                                             
C 12.08 16.27 47.79                                                             
C 12.08 16.27 62.49                                                             
C 16.10 13.95  3.68                                                             
C 16.10 13.95 18.38                                                             
C 16.10 13.95 33.09                                                             
C 16.10 13.95 47.79                                                             
C 16.10 13.95 62.49                                                             
C 20.13 11.62  3.68                                                             
C 20.13 11.62 18.38                                                             
C 20.13 11.62 33.09                                                             
C 20.13 11.62 47.79                                                             
C 20.13 11.62 62.49                                                             
C 24.16  9.30  3.68                                                             
C 24.16  9.30 18.38                                                             
C 24.16  9.30 33.09                                                             
C 24.16  9.30 47.79                                                             
C 24.16  9.30 62.49                                                             
C 28.18  6.97  3.68                                                             
C 28.18  6.97 18.38                                                             
C 28.18  6.97 33.09                                                             
C 28.18  6.97 47.79                                                             
C 28.18  6.97 62.49                                                             
C 20.13 16.27  3.68                                                             
C 20.13 16.27 18.38                                                             
C 20.13 16.27 33.09                                                             
C 20.13 16.27 47.79                                                             
C 20.13 16.27 62.49                                                             
C 24.16 13.95  3.68                                                             
C 24.16 13.95 18.38                                                             
C 24.16 13.95 33.09                                                             
C 24.16 13.95 47.79                                                             
C 24.16 13.95 62.49                                                             
C 28.18 11.62  3.68                                                             
C 28.18 11.62 18.38                                                             
C 28.18 11.62 33.09                                                             
C 28.18 11.62 47.79                                                             
C 28.18 11.62 62.49                                                             
C 28.18 16.27  3.68                                                             
C 28.18 16.27 18.38                                                             
C 28.18 16.27 33.09                                                             
C 28.18 16.27 47.79                                                             
C 28.18 16.27 62.49                                                             
C  0.00  0.00 11.03                                                             
C  0.00  0.00 25.73                                                             
C  0.00  0.00 40.44                                                             
C  0.00  0.00 55.14                                                             
C  0.00  0.00 69.85                                                             
C  0.00  4.65 11.03                                                             
C  0.00  4.65 25.73                                                             
C  0.00  4.65 40.44                                                             
C  0.00  4.65 55.14                                                             
C  0.00  4.65 69.85                                                             
C  4.03  2.32 11.03                                                             
C  4.03  2.32 25.73                                                             
C  4.03  2.32 40.44                                                             
C  4.03  2.32 55.14                                                             
C  4.03  2.32 69.85                                                             
C  8.05  0.00 11.03                                                             
C  8.05  0.00 25.73                                                             
C  8.05  0.00 40.44                                                             
C  8.05  0.00 55.14                                                             
C  8.05  0.00 69.85                                                             
C  0.00  9.30 11.03                                                             
C  0.00  9.30 25.73                                                             
C  0.00  9.30 40.44                                                             
C  0.00  9.30 55.14                                                             
C  0.00  9.30 69.85                                                             
C  4.03  6.97 11.03                                                             
C  4.03  6.97 25.73                                                             
C  4.03  6.97 40.44                                                             
C  4.03  6.97 55.14                                                             
C  4.03  6.97 69.85                                                             
C  8.05  4.65 11.03                                                             
C  8.05  4.65 25.73                                                             
C  8.05  4.65 40.44                                                             
C  8.05  4.65 55.14                                                             
C  8.05  4.65 69.85                                                             
C 12.08  2.32 11.03                                                             
C 12.08  2.32 25.73                                                             
C 12.08  2.32 40.44                                                             
C 12.08  2.32 55.14                                                             
C 12.08  2.32 69.85                                                             
C 16.10  0.00 11.03                                                             
C 16.10  0.00 25.73                                                             
C 16.10  0.00 40.44                                                             
C 16.10  0.00 55.14                                                             
C 16.10  0.00 69.85                                                             
C  0.00 13.95 11.03                                                             
C  0.00 13.95 25.73                                                             
C  0.00 13.95 40.44                                                             
C  0.00 13.95 55.14                                                             
C  0.00 13.95 69.85                                                             
C  4.03 11.62 11.03                                                             
C  4.03 11.62 25.73                                                             
C  4.03 11.62 40.44                                                             
C  4.03 11.62 55.14                                                             
C  4.03 11.62 69.85                                                             
C  8.05  9.30 11.03                                                             
C  8.05  9.30 25.73                                                             
C  8.05  9.30 40.44                                                             
C  8.05  9.30 55.14                                                             
C  8.05  9.30 69.85                                                             
C 12.08  6.97 11.03                                                             
C 12.08  6.97 25.73                                                             
C 12.08  6.97 40.44                                                             
C 12.08  6.97 55.14                                                             
C 12.08  6.97 69.85                                                             
C 16.10  4.65 11.03                                                             
C 16.10  4.65 25.73                                                             
C 16.10  4.65 40.44                                                             
C 16.10  4.65 55.14                                                             
C 16.10  4.65 69.85                                                             
C 20.13  2.32 11.03                                                             
C 20.13  2.32 25.73                                                             
C 20.13  2.32 40.44                                                             
C 20.13  2.32 55.14                                                             
C 20.13  2.32 69.85                                                             
C 24.16  0.00 11.03                                                             
C 24.16  0.00 25.73                                                             
C 24.16  0.00 40.44                                                             
C 24.16  0.00 55.14                                                             
C 24.16  0.00 69.85                                                             
C  4.03 16.27 11.03                                                             
C  4.03 16.27 25.73                                                             
C  4.03 16.27 40.44                                                             
C  4.03 16.27 55.14                                                             
C  4.03 16.27 69.85                                                             
C  8.05 13.95 11.03                                                             
C  8.05 13.95 25.73                                                             
C  8.05 13.95 40.44                                                             
C  8.05 13.95 55.14                                                             
C  8.05 13.95 69.85                                                             
C 12.08 11.62 11.03                                                             
C 12.08 11.62 25.73                                                             
C 12.08 11.62 40.44                                                             
C 12.08 11.62 55.14                                                             
C 12.08 11.62 69.85                                                             
C 16.10  9.30 11.03                                                             
C 16.10  9.30 25.73                                                             
C 16.10  9.30 40.44                                                             
C 16.10  9.30 55.14                                                             
C 16.10  9.30 69.85                                                             
C 20.13  6.97 11.03                                                             
C 20.13  6.97 25.73                                                             
C 20.13  6.97 40.44                                                             
C 20.13  6.97 55.14                                                             
C 20.13  6.97 69.85                                                             
C 24.16  4.65 11.03                                                             
C 24.16  4.65 25.73                                                             
C 24.16  4.65 40.44                                                             
C 24.16  4.65 55.14                                                             
C 24.16  4.65 69.85                                                             
C 28.18  2.32 11.03                                                             
C 28.18  2.32 25.73                                                             
C 28.18  2.32 40.44                                                             
C 28.18  2.32 55.14                                                             
C 28.18  2.32 69.85                                                             
C 12.08 16.27 11.03                                                             
C 12.08 16.27 25.73                                                             
C 12.08 16.27 40.44                                                             
C 12.08 16.27 55.14                                                             
C 12.08 16.27 69.85                                                             
C 16.10 13.95 11.03                                                             
C 16.10 13.95 25.73                                                             
C 16.10 13.95 40.44                                                             
C 16.10 13.95 55.14                                                             
C 16.10 13.95 69.85                                                             
C 20.13 11.62 11.03                                                             
C 20.13 11.62 25.73                                                             
C 20.13 11.62 40.44                                                             
C 20.13 11.62 55.14                                                             
C 20.13 11.62 69.85                                                             
C 24.16  9.30 11.03                                                             
C 24.16  9.30 25.73                                                             
C 24.16  9.30 40.44                                                             
C 24.16  9.30 55.14                                                             
C 24.16  9.30 69.85                                                             
C 28.18  6.97 11.03                                                             
C 28.18  6.97 25.73                                                             
C 28.18  6.97 40.44                                                             
C 28.18  6.97 55.14                                                             
C 28.18  6.97 69.85                                                             
C 20.13 16.27 11.03                                                             
C 20.13 16.27 25.73                                                             
C 20.13 16.27 40.44                                                             
C 20.13 16.27 55.14                                                             
C 20.13 16.27 69.85                                                             
C 24.16 13.95 11.03                                                             
C 24.16 13.95 25.73                                                             
C 24.16 13.95 40.44                                                             
C 24.16 13.95 55.14                                                             
C 24.16 13.95 69.85                                                             
C 28.18 11.62 11.03                                                             
C 28.18 11.62 25.73                                                             
C 28.18 11.62 40.44                                                             
C 28.18 11.62 55.14                                                             
C 28.18 11.62 69.85                                                             
C 28.18 16.27 11.03                                                             
C 28.18 16.27 25.73                                                             
C 28.18 16.27 40.44                                                             
C 28.18 16.27 55.14                                                             
C 28.18 16.27 69.85                                                             
C  1.34  2.32  3.68                                                             
C  1.34  2.32 18.38                                                             
C  1.34  2.32 33.09                                                             
C  1.34  2.32 47.79                                                             
C  1.34  2.32 62.49                                                             
C  5.37  0.00  3.68                                                             
C  5.37  0.00 18.38                                                             
C  5.37  0.00 33.09                                                             
C  5.37  0.00 47.79                                                             
C  5.37  0.00 62.49                                                             
C  1.34  6.97  3.68                                                             
C  1.34  6.97 18.38                                                             
C  1.34  6.97 33.09                                                             
C  1.34  6.97 47.79                                                             
C  1.34  6.97 62.49                                                             
C  5.37  4.65  3.68                                                             
C  5.37  4.65 18.38                                                             
C  5.37  4.65 33.09                                                             
C  5.37  4.65 47.79                                                             
C  5.37  4.65 62.49                                                             
C  9.39  2.32  3.68                                                             
C  9.39  2.32 18.38                                                             
C  9.39  2.32 33.09                                                             
C  9.39  2.32 47.79                                                             
C  9.39  2.32 62.49                                                             
C 13.42  0.00  3.68                                                             
C 13.42  0.00 18.38                                                             
C 13.42  0.00 33.09                                                             
C 13.42  0.00 47.79                                                             
C 13.42  0.00 62.49                                                             
C  1.34 11.62  3.68                                                             
C  1.34 11.62 18.38                                                             
C  1.34 11.62 33.09                                                             
C  1.34 11.62 47.79                                                             
C  1.34 11.62 62.49                                                             
C  5.37  9.30  3.68                                                             
C  5.37  9.30 18.38                                                             
C  5.37  9.30 33.09                                                             
C  5.37  9.30 47.79                                                             
C  5.37  9.30 62.49                                                             
C  9.39  6.97  3.68                                                             
C  9.39  6.97 18.38                                                             
C  9.39  6.97 33.09                                                             
C  9.39  6.97 47.79                                                             
C  9.39  6.97 62.49                                                             
C 13.42  4.65  3.68                                                             
C 13.42  4.65 18.38                                                             
C 13.42  4.65 33.09                                                             
C 13.42  4.65 47.79                                                             
C 13.42  4.65 62.49                                                             
C 17.45  2.32  3.68                                                             
C 17.45  2.32 18.38                                                             
C 17.45  2.32 33.09                                                             
C 17.45  2.32 47.79                                                             
C 17.45  2.32 62.49                                                             
C 21.47  0.00  3.68                                                             
C 21.47  0.00 18.38                                                             
C 21.47  0.00 33.09                                                             
C 21.47  0.00 47.79                                                             
C 21.47  0.00 62.49                                                             
C  1.34 16.27  3.68                                                             
C  1.34 16.27 18.38                                                             
C  1.34 16.27 33.09                                                             
C  1.34 16.27 47.79                                                             
C  1.34 16.27 62.49                                                             
C  5.37 13.95  3.68                                                             
C  5.37 13.95 18.38                                                             
C  5.37 13.95 33.09                                                             
C  5.37 13.95 47.79                                                             
C  5.37 13.95 62.49                                                             
C  9.39 11.62  3.68                                                             
C  9.39 11.62 18.38                                                             
C  9.39 11.62 33.09                                                             
C  9.39 11.62 47.79                                                             
C  9.39 11.62 62.49                                                             
C 13.42  9.30  3.68                                                             
C 13.42  9.30 18.38                                                             
C 13.42  9.30 33.09                                                             
C 13.42  9.30 47.79                                                             
C 13.42  9.30 62.49                                                             
C 17.45  6.97  3.68                                                             
C 17.45  6.97 18.38                                                             
C 17.45  6.97 33.09                                                             
C 17.45  6.97 47.79                                                             
C 17.45  6.97 62.49                                                             
C 21.47  4.65  3.68                                                             
C 21.47  4.65 18.38                                                             
C 21.47  4.65 33.09                                                             
C 21.47  4.65 47.79                                                             
C 21.47  4.65 62.49                                                             
C 25.50  2.32  3.68                                                             
C 25.50  2.32 18.38                                                             
C 25.50  2.32 33.09                                                             
C 25.50  2.32 47.79                                                             
C 25.50  2.32 62.49                                                             
C 29.52  0.00  3.68                                                             
C 29.52  0.00 18.38                                                             
C 29.52  0.00 33.09                                                             
C 29.52  0.00 47.79                                                             
C 29.52  0.00 62.49                                                             
C  9.39 16.27  3.68                                                             
C  9.39 16.27 18.38                                                             
C  9.39 16.27 33.09                                                             
C  9.39 16.27 47.79                                                             
C  9.39 16.27 62.49                                                             
C 13.42 13.95  3.68                                                             
C 13.42 13.95 18.38                                                             
C 13.42 13.95 33.09                                                             
C 13.42 13.95 47.79                                                             
C 13.42 13.95 62.49                                                             
C 17.45 11.62  3.68                                                             
C 17.45 11.62 18.38                                                             
C 17.45 11.62 33.09                                                             
C 17.45 11.62 47.79                                                             
C 17.45 11.62 62.49                                                             
C 21.47  9.30  3.68                                                             
C 21.47  9.30 18.38                                                             
C 21.47  9.30 33.09                                                             
C 21.47  9.30 47.79                                                             
C 21.47  9.30 62.49                                                             
C 25.50  6.97  3.68                                                             
C 25.50  6.97 18.38                                                             
C 25.50  6.97 33.09                                                             
C 25.50  6.97 47.79                                                             
C 25.50  6.97 62.49                                                             
C 29.52  4.65  3.68                                                             
C 29.52  4.65 18.38                                                             
C 29.52  4.65 33.09                                                             
C 29.52  4.65 47.79                                                             
C 29.52  4.65 62.49                                                             
C 17.45 16.27  3.68                                                             
C 17.45 16.27 18.38                                                             
C 17.45 16.27 33.09                                                             
C 17.45 16.27 47.79                                                             
C 17.45 16.27 62.49                                                             
C 21.47 13.95  3.68                                                             
C 21.47 13.95 18.38                                                             
C 21.47 13.95 33.09                                                             
C 21.47 13.95 47.79                                                             
C 21.47 13.95 62.49                                                             
C 25.50 11.62  3.68                                                             
C 25.50 11.62 18.38                                                             
C 25.50 11.62 33.09                                                             
C 25.50 11.62 47.79                                                             
C 25.50 11.62 62.49                                                             
C 29.52  9.30  3.68                                                             
C 29.52  9.30 18.38                                                             
C 29.52  9.30 33.09                                                             
C 29.52  9.30 47.79                                                             
C 29.52  9.30 62.49                                                             
C 25.50 16.27  3.68                                                             
C 25.50 16.27 18.38                                                             
C 25.50 16.27 33.09                                                             
C 25.50 16.27 47.79                                                             
C 25.50 16.27 62.49                                                             
C 29.52 13.95  3.68                                                             
C 29.52 13.95 18.38                                                             
C 29.52 13.95 33.09                                                             
C 29.52 13.95 47.79                                                             
C 29.52 13.95 62.49                                                             
C  2.68  0.00 11.03                                                             
C  2.68  0.00 25.73                                                             
C  2.68  0.00 40.44                                                             
C  2.68  0.00 55.14                                                             
C  2.68  0.00 69.85                                                             
C  2.68  4.65 11.03                                                             
C  2.68  4.65 25.73                                                             
C  2.68  4.65 40.44                                                             
C  2.68  4.65 55.14                                                             
C  2.68  4.65 69.85                                                             
C  6.71  2.32 11.03                                                             
C  6.71  2.32 25.73                                                             
C  6.71  2.32 40.44                                                             
C  6.71  2.32 55.14                                                             
C  6.71  2.32 69.85                                                             
C 10.74  0.00 11.03                                                             
C 10.74  0.00 25.73                                                             
C 10.74  0.00 40.44                                                             
C 10.74  0.00 55.14                                                             
C 10.74  0.00 69.85                                                             
C  2.68  9.30 11.03                                                             
C  2.68  9.30 25.73                                                             
C  2.68  9.30 40.44                                                             
C  2.68  9.30 55.14                                                             
C  2.68  9.30 69.85                                                             
C  6.71  6.97 11.03                                                             
C  6.71  6.97 25.73                                                             
C  6.71  6.97 40.44                                                             
C  6.71  6.97 55.14                                                             
C  6.71  6.97 69.85                                                             
C 10.74  4.65 11.03                                                             
C 10.74  4.65 25.73                                                             
C 10.74  4.65 40.44                                                             
C 10.74  4.65 55.14                                                             
C 10.74  4.65 69.85                                                             
C 14.76  2.32 11.03                                                             
C 14.76  2.32 25.73                                                             
C 14.76  2.32 40.44                                                             
C 14.76  2.32 55.14                                                             
C 14.76  2.32 69.85                                                             
C 18.79  0.00 11.03                                                             
C 18.79  0.00 25.73                                                             
C 18.79  0.00 40.44                                                             
C 18.79  0.00 55.14                                                             
C 18.79  0.00 69.85                                                             
C  2.68 13.95 11.03                                                             
C  2.68 13.95 25.73                                                             
C  2.68 13.95 40.44                                                             
C  2.68 13.95 55.14                                                             
C  2.68 13.95 69.85                                                             
C  6.71 11.62 11.03                                                             
C  6.71 11.62 25.73                                                             
C  6.71 11.62 40.44                                                             
C  6.71 11.62 55.14                                                             
C  6.71 11.62 69.85                                                             
C 10.74  9.30 11.03                                                             
C 10.74  9.30 25.73                                                             
C 10.74  9.30 40.44                                                             
C 10.74  9.30 55.14                                                             
C 10.74  9.30 69.85                                                             
C 14.76  6.97 11.03                                                             
C 14.76  6.97 25.73                                                             
C 14.76  6.97 40.44                                                             
C 14.76  6.97 55.14                                                             
C 14.76  6.97 69.85                                                             
C 18.79  4.65 11.03                                                             
C 18.79  4.65 25.73                                                             
C 18.79  4.65 40.44                                                             
C 18.79  4.65 55.14                                                             
C 18.79  4.65 69.85                                                             
C 22.81  2.32 11.03                                                             
C 22.81  2.32 25.73                                                             
C 22.81  2.32 40.44                                                             
C 22.81  2.32 55.14                                                             
C 22.81  2.32 69.85                                                             
C 26.84  0.00 11.03                                                             
C 26.84  0.00 25.73                                                             
C 26.84  0.00 40.44                                                             
C 26.84  0.00 55.14                                                             
C 26.84  0.00 69.85                                                             
C  6.71 16.27 11.03                                                             
C  6.71 16.27 25.73                                                             
C  6.71 16.27 40.44                                                             
C  6.71 16.27 55.14                                                             
C  6.71 16.27 69.85                                                             
C 10.74 13.95 11.03                                                             
C 10.74 13.95 25.73                                                             
C 10.74 13.95 40.44                                                             
C 10.74 13.95 55.14                                                             
C 10.74 13.95 69.85                                                             
C 14.76 11.62 11.03                                                             
C 14.76 11.62 25.73                                                             
C 14.76 11.62 40.44                                                             
C 14.76 11.62 55.14                                                             
C 14.76 11.62 69.85                                                             
C 18.79  9.30 11.03                                                             
C 18.79  9.30 25.73                                                             
C 18.79  9.30 40.44                                                             
C 18.79  9.30 55.14                                                             
C 18.79  9.30 69.85                                                             
C 22.81  6.97 11.03                                                             
C 22.81  6.97 25.73                                                             
C 22.81  6.97 40.44                                                             
C 22.81  6.97 55.14                                                             
C 22.81  6.97 69.85                                                             
C 26.84  4.65 11.03                                                             
C 26.84  4.65 25.73                                                             
C 26.84  4.65 40.44                                                             
C 26.84  4.65 55.14                                                             
C 26.84  4.65 69.85                                                             
C 30.86  2.32 11.03                                                             
C 30.86  2.32 25.73                                                             
C 30.86  2.32 40.44                                                             
C 30.86  2.32 55.14                                                             
C 30.86  2.32 69.85                                                             
C 14.76 16.27 11.03                                                             
C 14.76 16.27 25.73                                                             
C 14.76 16.27 40.44                                                             
C 14.76 16.27 55.14                                                             
C 14.76 16.27 69.85                                                             
C 18.79 13.95 11.03                                                             
C 18.79 13.95 25.73                                                             
C 18.79 13.95 40.44                                                             
C 18.79 13.95 55.14                                                             
C 18.79 13.95 69.85                                                             
C 22.81 11.62 11.03                                                             
C 22.81 11.62 25.73                                                             
C 22.81 11.62 40.44                                                             
C 22.81 11.62 55.14                                                             
C 22.81 11.62 69.85                                                             
C 26.84  9.30 11.03                                                             
C 26.84  9.30 25.73                                                             
C 26.84  9.30 40.44                                                             
C 26.84  9.30 55.14                                                             
C 26.84  9.30 69.85                                                             
C 30.86  6.97 11.03                                                             
C 30.86  6.97 25.73                                                             
C 30.86  6.97 40.44                                                             
C 30.86  6.97 55.14                                                             
C 30.86  6.97 69.85                                                             
C 22.81 16.27 11.03                                                             
C 22.81 16.27 25.73                                                             
C 22.81 16.27 40.44                                                             
C 22.81 16.27 55.14                                                             
C 22.81 16.27 69.85                                                             
C 26.84 13.95 11.03                                                             
C 26.84 13.95 25.73                                                             
C 26.84 13.95 40.44                                                             
C 26.84 13.95 55.14                                                             
C 26.84 13.95 69.85                                                             
C 30.86 11.62 11.03                                                             
C 30.86 11.62 25.73                                                             
C 30.86 11.62 40.44                                                             
C 30.86 11.62 55.14                                                             
C 30.86 11.62 69.85                                                             
C 30.86 16.27 11.03                                                             
C 30.86 16.27 25.73                                                             
C 30.86 16.27 40.44                                                             
C 30.86 16.27 55.14                                                             
C 30.86 16.27 69.85                                                             
%ENDBLOCK POSITIONS_ABS                                                         

--------------------------------------------------------------------------------
-------------------------------- END INPUT FILE --------------------------------
--------------------------------------------------------------------------------


 
<<<<<<<<<<<<<<<<<<<<<<<<<<<<<<<<< Full system >>>>>>>>>>>>>>>>>>>>>>>>>>>>>>>>>>
<<<<<<<<<<<<<<<<<<<<<<<<<<< PAW Dataset information >>>>>>>>>>>>>>>>>>>>>>>>>>>
File: ~/pp/paw/c_pbe_abinit.paw; rc = 1.25 bohr; shape type =  3; rshape = 1.25 bohr;
  Atomic number:  6;  ionic charge:  4.000000
    Partial Wave 1: l = 0
    Partial Wave 2: l = 0
    Partial Wave 3: l = 1
    Partial Wave 4: l = 1
  Core charge supplied for Nonlinear Core Corrections
<<<<<<<<<<<<<<<<<<<<<<<<<<<<<<<<<<<<<<< >>>>>>>>>>>>>>>>>>>>>>>>>>>>>>>>>>>>>>>

-------------------------- Atom counting information ---------------------------
Symbol    Natoms    Nngwfs    Nprojs
  C        640      2560      5120
.......   ......    ......    ......
Totals:    640      2560      5120
--------------------------------------------------------------------------------

=============================== PSINC grid sizes ===============================
                      Simulation cell:   63 x  35 x 145
                              FFT-box:   63 x  35 x 117
                                  PPD:    7 x   5 x   1
Grid space d1=  0.511269841270a0 (KE cutoff=  29.06054Eh = 790.77748eV)
Grid space d2=  0.531142857143a0 (KE cutoff=  26.92659Eh = 732.70972eV)
Grid space d3=  0.507034482759a0 (KE cutoff=  29.54806Eh = 804.04369eV)
================================================================================
  
WARNING in cell_grid_distribute:
Average of less than one 23-slab per node, so workload cannot be
equally balanced between nodes.

********************* Fourier parallelisation information **********************
       Coarse grid (whole simulation cell) dimensions:     63    35   145
          Real-space ('12') slabs/node (min max mean):      3     4     3
         Recip-space ('23') slabs/node (min max mean):      0     1     0
********************************************************************************

********************* Fourier parallelisation information **********************
       Double grid (whole simulation cell) dimensions:    126    70   290
          Real-space ('12') slabs/node (min max mean):      7     8     7
         Recip-space ('23') slabs/node (min max mean):      1     2     1
********************************************************************************

Atom SCF Calculation for C  : Z (AE atom) =   6 : Z (PS atom) =   4
Config String: 2s2 2p2
Orbitals (num,occ):  2     2.00 2.00
Orbitals   (num,l):  2        0    1
Real-space Grid (nr,dr,rmax): 1293    0.0069659443    9.0000000000
Spherical Bessel Basis (nsws,lmax,cutoff):   37    2  161.4736382572
Confining potential (l,width,scale):  0    3.0000000000  100.0000000000
Confining potential (l,width,scale):  1    3.0000000000  100.0000000000
  1         -5.4795203654   -1.3252209296    4.5135257941   -1.6370402169
  2         -5.4480859746   -1.4027979239    4.4305951748   -1.6109819005
  3         -5.4553164790   -1.4212834043    4.4102618304   -1.6059039466
  4         -5.4627841133   -1.4247091338    4.4065122085   -1.6052907585
  5         -5.4662306655   -1.4266814823    4.4043715292   -1.6049352647
  6         -5.4679520247   -1.4277352742    4.4032348712   -1.6047493439
  7         -5.4688359568   -1.4282868030    4.4026432892   -1.6046541449
  8         -5.4692951245   -1.4285734530    4.4023374832   -1.6046056242
  9         -5.4695349887   -1.4287220785    4.4021797781   -1.6045809101
 10         -5.4696606791   -1.4287991022    4.4020984905   -1.6045683155
 11         -5.4697266650   -1.4288390363    4.4020565747   -1.6045618912
 12         -5.4697613504   -1.4288597596    4.4020349416   -1.6045586107
 13         -5.4697795998   -1.4288705262    4.4020237638   -1.6045569335
 14         -5.4697892089   -1.4288761271    4.4020179806   -1.6045560749
 15         -5.4697942720   -1.4288790448    4.4020149844   -1.6045556348
 16         -5.4697969415   -1.4288805668    4.4020134298   -1.6045554088
 17         -5.4697983498   -1.4288813619    4.4020126220   -1.6045552927
 18         -5.4697990933   -1.4288817779    4.4020122017   -1.6045552329
 19         -5.4697994860   -1.4288819957    4.4020119826   -1.6045552021
 20         -5.4697996936   -1.4288821100    4.4020118683   -1.6045551862
 21         -5.4697998034   -1.4288821701    4.4020118085   -1.6045551780
 22         -5.4697998614   -1.4288822017    4.4020117772   -1.6045551737
Atom SCF converged after  22 iterations to a total energy of     -5.46979986

Determining parallel strategy ...
... using space-filling curve
... NGWF load balancing: max     64;  min     64;  average     64
... Projector load balancing: max    128;  min    128;  average    128
... done
Calculating Ewald energy ...
              Ewald: real-space energy =    9493.015829
        Ewald: reciprocal-space energy =       0.577250
         Ewald: (sum_charge)**2 Energy =   10768.736226
         Ewald: (sum_charge**2) Energy =     851.343350
                          Ewald Energy =   -2126.486497
Basis initialisation ...... NGWF spheres initialised
... Projector spheres initialised
... NGWF tight boxes initialised
... Projector tight boxes initialised
... Tight-boxes gathered
... NGWF basis size (local,global):     692596  27886816
... PAW projector initialisation
... done

============================= Charge Augmentation ==============================
                           Aug box size:   11 x  11 x  11
================================================================================

========================== Sparse matrix information ===========================
                        Overlap matrix filling:  40.31%
                        Density kernel filling: 100.00%
              NGWF-Proj overlap matrix filling:  12.19%
                    Aug Overlap matrix filling:  47.03%
                    Hamiltonian matrix filling:  47.03%
                  NGWF diagonal matrix filling:   0.16%
                             KS matrix filling: 100.00% 
                           KSKS matrix filling: 100.00% 
================================================================================

Sparse matrix initialisation ... done
NGWF initialisation ...... done
============ Calculation of NGWF S^-1 using Hotelling algorithm ================ 
         Iteration  |  Frobenius norm and Maximum abs value    (of I-S*S_n^-1)   
               1       0.48911025E+02     0.97402173E+00
               2       0.47588510E+02     0.94993618E+00
               3       0.45642649E+02     0.90659786E+00
               4       0.43167667E+02     0.83487313E+00
               5       0.40232059E+02     0.72977471E+00
               6       0.36864929E+02     0.67170088E+00
               7       0.33417967E+02     0.62533087E+00
               8       0.30115707E+02     0.58576172E+00
               9       0.26481506E+02     0.53959698E+00
              10       0.21817966E+02     0.46562885E+00
              11       0.15777412E+02     0.35013761E+00
              12       0.90014818E+01     0.20338310E+00
              13       0.33801387E+01     0.73866610E-01
              14       0.57279485E+00     0.11336111E-01
              15       0.19845256E-01     0.33222669E-03
              16       0.31992129E-04     0.38053898E-06
              17       0.12775413E-09     0.90571994E-12
================================================================================
Calculating core density ...
================================= Core Density =================================
               Core den box size:   21 x  21 x  21
================================================================================
 ... done
Up spin density kernel initialisation ...... done

Writing density kernel to file "3.890624_GO_manual_4x64graphite.dkn" ... done

>>> Optimising kernel for current NGWFs:

--------------------------- Ensemble-DFT optimisation --------------------------
Running ScaLAPACK on   40 processor(s).

--------------------------------------------------------------------------------
  Iter                              Commutator    Free_energy(A=E-TS)     DeltaA
#    0                          0.000035051922   -3648.14674719131153  -3.65E+03

Step                       =       0.381966011250
Energy                     =   -3648.146722378509
Entropy (-TS)              =      -0.000024812872
Free energy (A=E-TS)       =   -3648.146747191312
Est. 0K Energy 0.5*(E+A)   =   -3648.146734784910
Residual Non-orthogonality =       0.000000000000
Residual N_electrons       =       0.000000000070

Spin          Integrated_Ne            Fermi_level     Delta_Fermi_level
   1      2559.999999999515         0.143916279106              1.44E-01

                           Spin 1          
     Orb      H-eigenvalues     Occupancies
       1 |    -0.5790219342    1.0000000000 | 
                          ------
    1276 |     0.1080789361    0.9999878302 | 
    1277 |     0.1085931688    0.9999856845 | 
    1278 |     0.1086972454    0.9999852063 | 
    1279 |     0.1087084667    0.9999851537 | 
    1280 |     0.1092239485    0.9999825294 | 
                 - Gap at zero temperature -
    1281 |     0.1805517807    0.0000094586 | 
    1282 |     0.1805576815    0.0000094410 | 
    1283 |     0.1805617272    0.0000094289 | 
    1284 |     0.1806497042    0.0000091706 | 
    1285 |     0.1806526203    0.0000091622 | 
                          ------
    2560 |     0.9780530443    0.0000000000 | 

                       |  Abs_value |  Threshold | Converged
     Delta_Free_energy |   3.65E+03 |   1.00E-06 |        No
     Delta_Energy      |   3.65E+03 |   1.00E-04 |        No
     Delta_Entropy     |   2.48E-05 |   1.00E-04 |       Yes
     Commutator        |   3.51E-05 |   1.00E-05 |        No
     Delta_Fermi_level |   1.44E-01 |   1.00E-03 |        No

  Line search of the free energy minimum:
  Step_type        Step             Free_energy   Predicted_free_energy
.   Initial    0.000000    -3648.14674719131153
.    Trial1    0.381966    -3648.14810178447397
.    Trial2    0.618034    -3648.14839149914678
. Quadratic    0.663528    -3648.14839942410072    -3648.14839926559671

--------------------------------------------------------------------------------
  Iter                              Commutator    Free_energy(A=E-TS)     DeltaA
#    1                          0.000019193766   -3648.14839942410072  -1.65E-03

Step                       =       0.663528169259
Energy                     =   -3648.148374542042
Entropy (-TS)              =      -0.000024881775
Free energy (A=E-TS)       =   -3648.148399424101
Est. 0K Energy 0.5*(E+A)   =   -3648.148386983071
Residual Non-orthogonality =       0.000000000000
Residual N_electrons       =      -0.000000000284

Spin          Integrated_Ne            Fermi_level     Delta_Fermi_level
   1      2560.000000002006         0.141442301933             -2.47E-03

                           Spin 1          
     Orb      H-eigenvalues     Occupancies
       1 |    -0.5836872163    1.0000000000 | 
                          ------
    1276 |     0.1056721845    0.9999875691 | 
    1277 |     0.1061233106    0.9999856659 | 
    1278 |     0.1061312964    0.9999856297 | 
    1279 |     0.1061758558    0.9999854261 | 
    1280 |     0.1066358774    0.9999831476 | 
                 - Gap at zero temperature -
    1281 |     0.1779823871    0.0000097479 | 
    1282 |     0.1779886325    0.0000097287 | 
    1283 |     0.1780084724    0.0000096680 | 
    1284 |     0.1780920261    0.0000094162 | 
    1285 |     0.1781046925    0.0000093786 | 
                          ------
    2560 |     0.9738218315    0.0000000000 | 

                       |  Abs_value |  Threshold | Converged
     Delta_Free_energy |   1.65E-03 |   1.00E-06 |        No
     Delta_Energy      |   1.65E-03 |   1.00E-04 |        No
     Delta_Entropy     |   6.89E-08 |   1.00E-04 |       Yes
     Commutator        |   1.92E-05 |   1.00E-05 |        No
     Delta_Fermi_level |   2.47E-03 |   1.00E-03 |        No

  Line search of the free energy minimum:
  Step_type        Step             Free_energy   Predicted_free_energy
.   Initial    0.000000    -3648.14839942410072
.    Trial1    0.663528    -3648.14775384400127
.    Trial2    0.253445    -3648.14875071592633
. Quadratic    0.247197    -3648.14875094611853    -3648.14875094050740

--------------------------------------------------------------------------------
  Iter                              Commutator    Free_energy(A=E-TS)     DeltaA
#    2                          0.000009187684   -3648.14875094611853  -3.52E-04

Step                       =       0.247196976177
Energy                     =   -3648.148726061959
Entropy (-TS)              =      -0.000024883933
Free energy (A=E-TS)       =   -3648.148750946119
Est. 0K Energy 0.5*(E+A)   =   -3648.148738504039
Residual Non-orthogonality =       0.000000000000
Residual N_electrons       =      -0.000000000227

Spin          Integrated_Ne            Fermi_level     Delta_Fermi_level
   1      2560.000000001606         0.141137528484             -3.05E-04

                           Spin 1          
     Orb      H-eigenvalues     Occupancies
       1 |    -0.5842715160    1.0000000000 | 
                          ------
    1276 |     0.1053301770    0.9999877144 | 
    1277 |     0.1058322889    0.9999856035 | 
    1278 |     0.1058428313    0.9999855555 | 
    1279 |     0.1058503622    0.9999855211 | 
    1280 |     0.1063534884    0.9999830280 | 
                 - Gap at zero temperature -
    1281 |     0.1777029130    0.0000096704 | 
    1282 |     0.1777094715    0.0000096504 | 
    1283 |     0.1777292393    0.0000095903 | 
    1284 |     0.1778148030    0.0000093347 | 
    1285 |     0.1778272117    0.0000092981 | 
                          ------
    2560 |     0.9732859095    0.0000000000 | 

                       |  Abs_value |  Threshold | Converged
     Delta_Free_energy |   3.52E-04 |   1.00E-06 |        No
     Delta_Energy      |   3.52E-04 |   1.00E-04 |        No
     Delta_Entropy     |   2.16E-09 |   1.00E-04 |       Yes
     Commutator        |   9.19E-06 |   1.00E-05 |       Yes
     Delta_Fermi_level |   3.05E-04 |   1.00E-03 |       Yes

  Line search of the free energy minimum:
  Step_type        Step             Free_energy   Predicted_free_energy
.   Initial    0.000000    -3648.14875094611853
.    Trial1    0.247197    -3648.14882198238092
.    Trial2    0.534742    -3648.14883469959204
. Quadratic    0.439604    -3648.14883881075866    -3648.14883881508831

--------------------------------------------------------------------------------
  Iter                              Commutator    Free_energy(A=E-TS)     DeltaA
#    3                          0.000006031907   -3648.14883881075866  -8.79E-05

Step                       =       0.439603946925
Energy                     =   -3648.148813929040
Entropy (-TS)              =      -0.000024881833
Free energy (A=E-TS)       =   -3648.148838810759
Est. 0K Energy 0.5*(E+A)   =   -3648.148826369899
Residual Non-orthogonality =       0.000000000000
Residual N_electrons       =       0.000000000114

Spin          Integrated_Ne            Fermi_level     Delta_Fermi_level
   1      2559.999999999191         0.140726944402             -4.11E-04

                           Spin 1          
     Orb      H-eigenvalues     Occupancies
       1 |    -0.5850437377    1.0000000000 | 
                          ------
    1276 |     0.1048961227    0.9999878051 | 
    1277 |     0.1053962650    0.9999857187 | 
    1278 |     0.1054410041    0.9999855155 | 
    1279 |     0.1054480385    0.9999854833 | 
    1280 |     0.1059492486    0.9999829940 | 
                 - Gap at zero temperature -
    1281 |     0.1773053561    0.0000096307 | 
    1282 |     0.1773123976    0.0000096093 | 
    1283 |     0.1773320037    0.0000095500 | 
    1284 |     0.1774196867    0.0000092892 | 
    1285 |     0.1774318154    0.0000092537 | 
                          ------
    2560 |     0.9725918496    0.0000000000 | 

                       |  Abs_value |  Threshold | Converged
     Delta_Free_energy |   8.79E-05 |   1.00E-06 |        No
     Delta_Energy      |   8.79E-05 |   1.00E-04 |       Yes
     Delta_Entropy     |   2.10E-09 |   1.00E-04 |       Yes
     Commutator        |   6.03E-06 |   1.00E-05 |       Yes
     Delta_Fermi_level |   4.11E-04 |   1.00E-03 |       Yes

  Line search of the free energy minimum:
  Step_type        Step             Free_energy   Predicted_free_energy
.   Initial    0.000000    -3648.14883881075866
.    Trial1    0.439604    -3648.14885723085763
.    Trial2    0.653656    -3648.14880036261775
. Quadratic    0.264326    -3648.14887169219992    -3648.14887168713540

--------------------------------------------------------------------------------
  Iter                              Commutator    Free_energy(A=E-TS)     DeltaA
#    4                          0.000003662041   -3648.14887169219992  -3.29E-05

Step                       =       0.264326272978
Energy                     =   -3648.148846812966
Entropy (-TS)              =      -0.000024879533
[...]
 C   160 -- C   385       -0.10      5.37000
 C   159 -- C   384       -0.10      5.37000
 C   158 -- C   383       -0.10      5.37000
 C   157 -- C   382       -0.10      5.37000
 C   156 -- C   381       -0.10      5.37000
 C   155 -- C   355       -0.10      5.37000
 C   154 -- C   354       -0.10      5.37000
 C   153 -- C   353       -0.10      5.37000
 C   152 -- C   352       -0.10      5.37000
 C   151 -- C   351       -0.10      5.37000
 C   140 -- C   335       -0.10      5.37000
 C   139 -- C   334       -0.10      5.37000
 C   138 -- C   333       -0.10      5.37000
 C   137 -- C   332       -0.10      5.37000
 C   136 -- C   331       -0.10      5.37000
 C   115 -- C   325       -0.10      5.37000
 C   114 -- C   324       -0.10      5.37000
 C   113 -- C   323       -0.10      5.37000
 C   112 -- C   322       -0.10      5.37000
 C   111 -- C   321       -0.10      5.37000
 C   219 -- C   569       -0.10      5.37202
 C   218 -- C   568       -0.10      5.37202
 C   217 -- C   567       -0.10      5.37202
 C   216 -- C   566       -0.10      5.37202
 C   250 -- C   540       -0.10      5.37202
 C   249 -- C   539       -0.10      5.37202
 C   248 -- C   538       -0.10      5.37202
 C   247 -- C   537       -0.10      5.37202
 C   246 -- C   536       -0.10      5.37202
 C   220 -- C   570       -0.10      5.37202
 C   285 -- C   580       -0.10      5.37202
 C   284 -- C   579       -0.10      5.37202
 C   283 -- C   578       -0.10      5.37202
 C   282 -- C   577       -0.10      5.37202
 C   281 -- C   576       -0.10      5.37202
 C   260 -- C   605       -0.10      5.37202
 C   259 -- C   604       -0.10      5.37202
 C   258 -- C   603       -0.10      5.37202
 C   257 -- C   602       -0.10      5.37202
 C   256 -- C   601       -0.10      5.37202
 C   220 -- C   515       -0.10      5.37202
 C   219 -- C   514       -0.10      5.37202
 C   218 -- C   513       -0.10      5.37202
 C   217 -- C   512       -0.10      5.37202
 C   216 -- C   511       -0.10      5.37202
 C   195 -- C   540       -0.10      5.37202
 C   195 -- C   500       -0.10      5.37202
 C   194 -- C   539       -0.10      5.37202
 C   194 -- C   499       -0.10      5.37202
 C   193 -- C   538       -0.10      5.37202
 C   193 -- C   498       -0.10      5.37202
 C   192 -- C   537       -0.10      5.37202
 C   192 -- C   497       -0.10      5.37202
 C   191 -- C   536       -0.10      5.37202
 C   191 -- C   496       -0.10      5.37202
 C   180 -- C   515       -0.10      5.37202
 C   179 -- C   514       -0.10      5.37202
 C   178 -- C   513       -0.10      5.37202
 C   177 -- C   512       -0.10      5.37202
 C   176 -- C   511       -0.10      5.37202
 C    11 -- C   331       -0.10      5.37202
 C   205 -- C   550       -0.10      5.37202
 C   204 -- C   549       -0.10      5.37202
 C   203 -- C   548       -0.10      5.37202
 C   202 -- C   547       -0.10      5.37202
 C   201 -- C   546       -0.10      5.37202
 C    95 -- C   425       -0.10      5.37202
 C    95 -- C   365       -0.10      5.37202
 C    94 -- C   424       -0.10      5.37202
 C    94 -- C   364       -0.10      5.37202
 C    93 -- C   423       -0.10      5.37202
 C    93 -- C   363       -0.10      5.37202
 C    92 -- C   422       -0.10      5.37202
 C    92 -- C   362       -0.10      5.37202
 C    91 -- C   421       -0.10      5.37202
 C    91 -- C   361       -0.10      5.37202
 C    40 -- C   365       -0.10      5.37202
 C    39 -- C   364       -0.10      5.37202
 C    38 -- C   363       -0.10      5.37202
 C    37 -- C   362       -0.10      5.37202
 C    36 -- C   361       -0.10      5.37202
 C    15 -- C   335       -0.10      5.37202
 C    65 -- C   395       -0.10      5.37202
 C    65 -- C   345       -0.10      5.37202
 C    64 -- C   394       -0.10      5.37202
 C    64 -- C   344       -0.10      5.37202
 C    63 -- C   393       -0.10      5.37202
 C    30 -- C   355       -0.10      5.37202
 C    63 -- C   343       -0.10      5.37202
 C    62 -- C   392       -0.10      5.37202
 C    30 -- C   325       -0.10      5.37202
 C    14 -- C   334       -0.10      5.37202
 C    62 -- C   342       -0.10      5.37202
 C    61 -- C   391       -0.10      5.37202
 C    29 -- C   354       -0.10      5.37202
 C    61 -- C   341       -0.10      5.37202
 C    29 -- C   324       -0.10      5.37202
 C   260 -- C   550       -0.10      5.37202
 C   259 -- C   549       -0.10      5.37202
 C    28 -- C   353       -0.10      5.37202
 C   258 -- C   548       -0.10      5.37202
 C   257 -- C   547       -0.10      5.37202
 C   256 -- C   546       -0.10      5.37202
 C    28 -- C   323       -0.10      5.37202
 C    27 -- C   352       -0.10      5.37202
 C    13 -- C   333       -0.10      5.37202
 C    27 -- C   322       -0.10      5.37202
 C   120 -- C   395       -0.10      5.37202
 C    26 -- C   351       -0.10      5.37202
 C   119 -- C   394       -0.10      5.37202
 C   118 -- C   393       -0.10      5.37202
 C    55 -- C   335       -0.10      5.37202
 C   117 -- C   392       -0.10      5.37202
 C    26 -- C   321       -0.10      5.37202
 C   116 -- C   391       -0.10      5.37202
 C    54 -- C   334       -0.10      5.37202
 C    12 -- C   332       -0.10      5.37202
 C    53 -- C   333       -0.10      5.37202
 C   230 -- C   580       -0.10      5.37202
 C   230 -- C   525       -0.10      5.37202
 C   229 -- C   579       -0.10      5.37202
 C   229 -- C   524       -0.10      5.37202
 C   228 -- C   578       -0.10      5.37202
 C    52 -- C   332       -0.10      5.37202
 C   228 -- C   523       -0.10      5.37202
 C   227 -- C   577       -0.10      5.37202
 C   227 -- C   522       -0.10      5.37202
 C   226 -- C   576       -0.10      5.37202
 C   226 -- C   521       -0.10      5.37202
 C    51 -- C   331       -0.10      5.37202
 C    23 -- C   478       -0.10      5.37202
 C    49 -- C   469       -0.10      5.37202
 C    48 -- C   468       -0.10      5.37202
 C    47 -- C   467       -0.10      5.37202
 C    22 -- C   477       -0.10      5.37202
 C    46 -- C   466       -0.10      5.37202
 C    21 -- C   476       -0.10      5.37202
 C    85 -- C   355       -0.10      5.37202
 C    84 -- C   354       -0.10      5.37202
 C    83 -- C   353       -0.10      5.37202
 C    82 -- C   352       -0.10      5.37202
 C    81 -- C   351       -0.10      5.37202
 C    55 -- C   385       -0.10      5.37202
 C    54 -- C   384       -0.10      5.37202
 C    25 -- C   480       -0.10      5.37202
 C    53 -- C   383       -0.10      5.37202
 C    52 -- C   382       -0.10      5.37202
 C    51 -- C   381       -0.10      5.37202
 C    24 -- C   479       -0.10      5.37202
 C    50 -- C   470       -0.10      5.37202
 C    24 -- C   449       -0.10      5.37202
 C     6 -- C   416       -0.10      5.37202
 C    23 -- C   448       -0.10      5.37202
 C    22 -- C   447       -0.10      5.37202
 C    10 -- C   470       -0.10      5.37202
 C     5 -- C   450       -0.10      5.37202
 C    21 -- C   446       -0.10      5.37202
 C    10 -- C   420       -0.10      5.37202
 C     9 -- C   469       -0.10      5.37202
 C     9 -- C   419       -0.10      5.37202
 C     8 -- C   468       -0.10      5.37202
 C     4 -- C   449       -0.10      5.37202
 C   150 -- C   440       -0.10      5.37202
 C   149 -- C   439       -0.10      5.37202
 C   148 -- C   438       -0.10      5.37202
 C   147 -- C   437       -0.10      5.37202
 C     8 -- C   418       -0.10      5.37202
 C   146 -- C   436       -0.10      5.37202
 C     2 -- C   447       -0.10      5.37202
 C   135 -- C   460       -0.10      5.37202
 C     7 -- C   467       -0.10      5.37202
 C   134 -- C   459       -0.10      5.37202
 C   133 -- C   458       -0.10      5.37202
 C   132 -- C   457       -0.10      5.37202
 C   131 -- C   456       -0.10      5.37202
 C     7 -- C   417       -0.10      5.37202
 C     1 -- C   446       -0.10      5.37202
 C     6 -- C   466       -0.10      5.37202
 C    25 -- C   450       -0.10      5.37202
 C     3 -- C   448       -0.10      5.37202
 C   106 -- C   436       -0.10      5.37202
 C   106 -- C   376       -0.10      5.37202
 C    80 -- C   410       -0.10      5.37202
 C    79 -- C   409       -0.10      5.37202
 C    78 -- C   408       -0.10      5.37202
 C    77 -- C   407       -0.10      5.37202
 C    76 -- C   406       -0.10      5.37202
 C   135 -- C   410       -0.10      5.37202
 C   134 -- C   409       -0.10      5.37202
 C   133 -- C   408       -0.10      5.37202
 C   132 -- C   407       -0.10      5.37202
 C   131 -- C   406       -0.10      5.37202
 C   110 -- C   440       -0.10      5.37202
 C   110 -- C   380       -0.10      5.37202
 C   109 -- C   439       -0.10      5.37202
 C   109 -- C   379       -0.10      5.37202
 C   108 -- C   438       -0.10      5.37202
 C   108 -- C   378       -0.10      5.37202
 C   107 -- C   437       -0.10      5.37202
 C   107 -- C   377       -0.10      5.37202
 C   215 -- C   635       -0.10      5.38000
 C   214 -- C   634       -0.10      5.38000
 C   213 -- C   633       -0.10      5.38000
 C   212 -- C   632       -0.10      5.38000
 C   211 -- C   631       -0.10      5.38000
 C   190 -- C   620       -0.10      5.38000
 C   189 -- C   619       -0.10      5.38000
 C   188 -- C   618       -0.10      5.38000
 C   187 -- C   617       -0.10      5.38000
 C   186 -- C   616       -0.10      5.38000
 C   175 -- C   595       -0.10      5.38000
 C   174 -- C   594       -0.10      5.38000
 C   173 -- C   593       -0.10      5.38000
 C   172 -- C   592       -0.10      5.38000
 C   171 -- C   591       -0.10      5.38000
 C   245 -- C   640       -0.10      5.38000
 C   244 -- C   639       -0.10      5.38000
 C   243 -- C   638       -0.10      5.38000
 C   242 -- C   637       -0.10      5.38000
 C   241 -- C   636       -0.10      5.38000
==================================================


=================== Orbital energy and occupancy information ===================

      Total number of orbitals:    2560
        Occupancy sum (kernel):    1280.000000000
   Occupancy sum (eigenvalues):    1280.000000000
                 HOMO-LUMO gap:       0.000003906 Eh
                 Mid-gap level:       0.235383271 Eh

                        Orbital | Energy (Eh) | Occupancy
                            1    -0.518746550   1.0000000
                        .......   ...........   .........
                         1272     0.163962023   0.9999890
                         1273     0.164416669   0.9999873
                         1274     0.164433154   0.9999872
                         1275     0.166220530   0.9999776
                         1276     0.166235650   0.9999775
                         1277     0.166691830   0.9999740
                         1278     0.166706936   0.9999738
                         1279     0.167014337   0.9999712
                         1280     0.167484685   0.9999666
                         1281     0.235381318   0.0000146
                        ....... -- gap at 0K -- .........
                         1282     0.235385224   0.0000146
                         1283     0.235608557   0.0000136
                         1284     0.235609385   0.0000136
                         1285     0.235629810   0.0000135
                         1286     0.235633734   0.0000135
                         1287     0.235768113   0.0000129
                         1288     0.235865174   0.0000125
                         1289     0.235866058   0.0000125
                         1290     0.235944403   0.0000122
                         1291     0.235947698   0.0000122
                        .......   ...........   .........
                         2560     1.095922451   0.0000000

================================================================================

===================== Writing canonical molecular orbitals =====================
| Orbital  Energy (eV)  Norm     |
| HOMO      6.40505158  1.000000 | Writing "3.890624_GO_manual_4x64graphite_HOMO.cube" ... done
Writing "3.890624_GO_manual_4x64graphite_HOMO.dx" ... done
| LUMO      6.40515786  1.000000 | Writing "3.890624_GO_manual_4x64graphite_LUMO.cube" ... done
Writing "3.890624_GO_manual_4x64graphite_LUMO.dx" ... done
================================================================================
 
===================== Density of States (DOS) calculation ======================
Writing "3.890624_GO_manual_4x64graphite_DOS.txt" ...  done
================================================================================
 
Writing bands to file "3.890624_GO_manual_4x64graphite.val_bands" ... done
 
================ Projected Density of States (pDOS) calculation ================
 
Constructing AM resolved functions  ...... done
Writing NGWF plot files in formats: CUBE DX ...  done
 
Performing overlap integrals ...  done
 
Computing pDOS weights ...  done
 
All bands spilling parameter =   2.93 %
Occupancy-weighted spilling parameter =   0.96 %
 
 => Outputting data for OptaDOS <=
 
Writing pDOS weights to file "3.890624_GO_manual_4x64graphite.val_pdos_bin" ... done
 
Writing band gradients to file "3.890624_GO_manual_4x64graphite.val_dome_bin" ... done
 
Writing Castep output cell file to "3.890624_GO_manual_4x64graphite-out.cell" ... done
 
 => Computing Gaussian smeared pDOS <= 
Writing "3.890624_GO_manual_4x64graphite_PDOS.txt" ...  done
 
 => Computing Occupancy-weighted Gaussian smeared pDOS <= 
Writing "3.890624_GO_manual_4x64graphite_occ_PDOS.txt" ...  done
  => Band centres: 
 S band centre of group 1:  -15.612463 eV
 P band centre of group 1:   -8.489991 eV
  Band centres done. <=
  => Integrated number of electrons in each AM band: 
 S num electrons of group 1:  575.406992
 P num electrons of group 1: 1960.059495
  Integrated number of electrons done. <=
================================================================================

------------------------------ TIMING INFORMATION ------------------------------
AVERAGE TIME:    3080.486s on     40 node(s)                                    
TOTAL TIME:      3080.487s on     40 node(s)                                    
================= AVERAGE TIMINGS FROM ALL NODES (CUMULATIVE) ==================
|| TAG                                    #calls    cpu time   %total  Gflops ||
|| work_imbalance                       :     1        0.00s   0.000%  ------ ||
|| paw_tcore_hartree_on_grid            :     1        0.00s   0.000%  ------ ||
|| paw_tcore_density                    :     1        0.01s   0.000%  ------ ||
|| paw_sphere_density_on_grid           :     1        0.01s   0.000%  ------ ||
|| sparse_set_to_garbage                :   135        0.02s   0.001%  ------ ||
|| paw_dij_hartree                      :   278        0.04s   0.001%  ------ ||
|| pseudo_make_structure_factor         :     1        0.06s   0.002%  ------ ||
|| basis_extract_function_from_box      :  1536        0.06s   0.002%  ------ ||
|| paw_species_calc_proj_prec_mat       :     1        0.12s   0.004%  ------ ||
|| paw_dataset_init                     :     1        0.15s   0.005%  ------ ||
|| density_init_guess_real              :     1        0.17s   0.006%  ------ ||
|| ngwfs_initialise_from_radial         :     2        0.66s   0.022%  ------ ||
|| restart_kernel_write                 :    13        0.80s   0.026%  ------ ||
|| sparse_init                          :     1        0.85s   0.027%  ------ ||
|| dense_normal_eigensolve              :     1        0.97s   0.031%  ------ ||
|| hartree_on_grid                      :   209        1.30s   0.042%  ------ ||
|| projectors_init_fftbox_recip         :   121        2.42s   0.078%  ------ ||
|| ewald_calculate_energy               :     1        3.32s   0.108%  ------ ||
|| fourier_apply_box_pair               :  2272        3.79s   0.123% 555.750 ||
|| basis_copy_function_to_box           : 19904        4.17s   0.135%  ------ ||
|| augmentation_screen_dij              :   214        4.79s   0.155%  ------ ||
|| sparse_embed_hotelling_invert_embed  :    23        6.31s   0.205%  ------ ||
|| sw_init                              :     1        6.74s   0.219%  ------ ||
|| ngwf_gradient_coeffs                 :    12        8.36s   0.272%  ------ ||
|| sparse_trace                         :  2516       11.32s   0.367%  ------ ||
|| fourier_apply_cell_backward          :  6450       16.13s   0.524%  55.013 ||
|| fourier_apply_cell_forward           :  6033       17.30s   0.562%  47.974 ||
|| cell_grid_extract_box_real           :  8428       17.80s   0.578%  ------ ||
|| paw_dij_xc                           :   278       18.82s   0.611%  ------ ||
|| cell_grid_deposit_box_real           : 26928       21.19s   0.688%  ------ ||
|| aug_nonlocal_mat                     :   266       27.66s   0.898%  ------ ||
|| augmentation_density_on_grid         :   209       37.44s   1.215%  ------ ||
|| density_fftbox_deposit_to_cell       : 13376       44.51s   1.445%  ------ ||
|| hamiltonian_energy_components        :     3       46.40s   1.506%  ------ ||
|| function_ops_brappd_ketppd           :    48       47.70s   1.548%  ------ ||
|| projectors_func_ovlp_box             :    24       52.84s   1.715%  ------ ||
|| eigenstates_pdos                     :     1       52.90s   1.717%  ------ ||
|| eigenstates_calculate                :     1       57.35s   1.862%  ------ ||
|| nlxc_vdw_energy                      :   416       67.45s   2.190%  ------ ||
|| xc_energy_potential                  :   208       70.33s   2.283%  ------ ||
|| integrals_kinetic                    :    23       74.49s   2.418%  ------ ||
|| dense_eigensolve                     :   182       92.53s   3.004%  ------ ||
|| sparse_product                       :  2552      102.23s   3.319%  ------ ||
|| potential_apply_to_ngwf_batch        :   264      105.50s   3.425%  ------ ||
|| properties_calculate                 :     1      106.50s   3.457%  ------ ||
|| restart_ngwfs_tightbox_output        :    11      129.04s   4.189%  ------ ||
|| basis_dot_function_with_box          : 6.078M     162.74s   5.283%  ------ ||
|| fourier_apply_box                    : 62736      195.49s   6.346% 974.889 ||
|| edft_diag_ngwf_ham                   :   181      204.09s   6.625%  ------ ||
|| projectors_gradient_batch            :    48      212.18s   6.888%  ------ ||
|| integrals_locpot_mat_els_batch       :   264      219.54s   7.127%  ------ ||
|| density_fftbox_interpolate_multiply  : 13376      257.01s   8.343%  ------ ||
|| projectors_grad_precond_batch        :    48      300.01s   9.739%  ------ ||
|| integrals_locpot_dbl_grid            :    66      326.18s  10.589%  ------ ||
|| density_batch_interp_deposit         :   836      335.70s  10.898%  ------ ||
|| edft_apply_smearing_operator         :   181      395.54s  12.840%  ------ ||
|| basis_add_function_to_box            : 16.97M     442.26s  14.357%  ------ ||
|| ngwf_gradient_build_batch            :    48      549.14s  17.826%  ------ ||
|| density_batch_row_sums               :   836      628.86s  20.414%  ------ ||
|| ngwf_gradient_batch                  :    48      725.50s  23.552%  ------ ||
|| ngwf_gradient_lnv                    :    12      749.81s  24.340%  ------ ||
|| density_on_dbl_grid                  :   209      976.79s  31.709%  ------ ||
|| hamiltonian_lhxc_calculate           :   204     1062.19s  34.481%  ------ ||
|| edft_calculate                       :    12     1765.00s  57.296%  ------ ||
|| ngwf_cg_optimise                     :     1     2949.00s  95.732%  ------ ||
|| total_time                           :     1     3080.49s 100.000%  ------ ||
================================================================================
Overhead of generating timer report: 
- 0 ms averaging over threads,
- 5 ms ensuring consistency across MPI ranks,
- 0 ms printing in order.

Job completed: 29-02-2020 11:26 (-0000)

