 +---------------------------------------------------------------+
 |                                                               |
 |        ####### #     # ####### ####### ####### ######         |
 |        #     # ##    # #          #    #       #     #        |
 |        #     # # #   # #          #    #       #     #        |
 |        #     # #  #  # #####      #    #####   ######         |
 |        #     # #   # # #          #    #       #              |
 |        #     # #    ## #          #    #       #              |
 |        ####### #     # #######    #    ####### #              |
 |                                                               |
 |        Linear-Scaling Ab Initio Total Energy Program          |
 |                                                               |
 |          Release for academic collaborators of ODG            |
 |                                             Version 5.3.2.12  |
 |                                                               |
 +---------------------------------------------------------------+
 |                                                               |
 |  Authors:                                                     |
 |  Jacek Dziedzic, Peter D. Haynes, Nicholas D. M. Hine,        |
 |  Arash. A. Mostofi, Mike C. Payne and Chris-Kriton Skylaris   |
 |                                                               |
 |  Contributors:                                                |
 |  J. Aarons, L. Andrinopoulos, P. W. Avraam, R. A. Bell,       |
 |  A. Bhandari, G. A. Bramley, R. J. Charlton, S. J. Clark,     |
 |  R. J. Clements, G. C. Constantinescu, F. Corsetti,           |
 |  N. Corsini, O. Dieguez, S. M. M. Dubois, K. K. B. Duff,      |
 |  J. M. Escartin, A. Greco, H. Helal, Q. O. Hill, L. P. Lee,   |
 |  J.-H. Li, E. B. Linscott, G. Moynihan, D. D. O`Regan,        |
 |  O. K. Okan, M. J. S. Phipps, C. J. Pickard,                  |
 |  J. C. A. Prentice, M. I. J. Probert, L. E. Ratcliff,         |
 |  M. Robinson, A. Ruiz Serrano, J. S. Spencer, E. W. Tait,     |
 |  G. Teobaldi, D. Turban, V. Vitale, K. A. Wilkinson,          |
 |  C. Weber, J. C. Womack, N. Yeung and T. J. Zuehlsdorff       |
 |                                                               |
 |                                   Copyright (c) 2004-2020     |
 |                                                               |
 |  Please cite:                                                 |
 |  "Introducing ONETEP: Linear-scaling density functional       |
 |   simulations on parallel computers".                         |
 |   C.-K. Skylaris, P. D. Haynes, A. A. Mostofi, M. C. Payne.   |
 |   J. Chem. Phys. 122 084119 (2005).                           |
 |                                                               |
 |          in all publications arising from your use of ONETEP. |
 |                                                               |
 +---------------------------------------------------------------+
 |                                                               |
 |   ONETEP is based on developments described in the following  |
 |   publications:                                               |
 |                                                               |
 |  "Nonorthogonal generalized Wannier function pseudopotential  |
 |   plane-wave method".                                         |
 |   C.-K. Skylaris, A. A. Mostofi, P. D. Haynes, O. Dieguez,    |
 |   M. C. Payne.                                                |
 |   Phys. Rev. B 66 035119 (2002).                              |
 |                                                               |
 |  "Preconditioned iterative minimization for linear-scaling    |
 |   electronic structure calculations".                         |
 |   A. A. Mostofi, P. D. Haynes, C.-K. Skylaris, M. C. Payne.   |
 |   J. Chem. Phys. 119(17), pp.8842-8848 (2003).                |
 |                                                               |
 |  "Total-energy calculations on a real space grid with         |
 |   localized functions and a plane-wave basis".                |
 |   A. A. Mostofi, C.-K. Skylaris, P. D. Haynes, M. C. Payne.   |
 |   Comput. Phys. Commun. 147, pp.788-802 (2002).               |
 |                                                               |
 |  "Accurate kinetic energy evaluation in electronic structure  |
 |   calculations with localized functions on real space grids"  |
 |   C.-K. Skylaris, A. A. Mostofi, P. D. Haynes, C. J. Pickard, |
 |   M. C. Payne.                                                |
 |   Comput. Phys. Commun. 140, pp.315-322 (2001).               |
 |                                                               |
 |  "Accurate ionic forces and geometry optimization in linear-  |
 |   scaling density-functional theory with local orbitals"      |
 |   N. D. M. Hine, M. Robinson, P. D. Haynes, C.-K. Skylaris,   |
 |   M. C. Payne, and A. A. Mostofi.                             |
 |   Phys. Rev. B 83 195102 (2011).                              |
 |                                                               |
 +---------------------------------------------------------------+

Job started: 03-10-2020 08:14 (+0100)
 
Reading parameters from file "36/592nano.dat" ...... done

If your calculation crashes here, before "Checking processes and threads..."
is displayed, then your stack size is insufficient.
If so, use "ulimit -s unlimited" at runtime.
You can disable this check with "check_stack_size F".

Checking processes and threads...
   Determining the default number of threads...
      No default threads set at compilation time: defaulting to 1.
      OpenMP library call suggests 4 threads.
      Hybrid MPI-OpenMP compilation detected.
      Number of MPI processes > 1.
      OMP_NUM_THREADS environment variable present and
      its value matches the one obtained from the OpenMP library call.
      Using this value as default.
      Default threads: 4
      Default applies to threads_max and threads_num_fftboxes.
      Settings in the input file override this default.
   ... done

   Running with 160 MPI processes.
   There are 10 MPI processes running on the same node as the root process.
   Each MPI process is using: 
               1 threads for simulation cell FFTs.
               1 threads for parallel FFT box operations.
               4 threads for loops over batched FFT box operations.
               4 threads in other parallel regions.
... done

Basic input checks...
Resetting ngwf_cg_rotate to TRUE for EDFT calculations
... done

Reading geometry and species blocks from file "36/592nano.dat" ...    
  Number of PPD points along a3 set to 1.  This is 
  the default value, it may have been provided also in the input file.
... done
 Writing xyz coordinates to file "36/592nano.xyz" ... done


--------------------------------------------------------------------------------
---------------------------------- INPUT FILE ----------------------------------
--------------------------------------------------------------------------------

task : singlepoint                                                              
do_properties : true                                                            
ddec_classical_hirshfeld T                                                      
dx_format T                                                                     
edft T                                                                          
edft_spin_fix 3                                                                 
output_detail VERBOSE                                                           
write_xyz T                                                                     
dispersion 4                                                                    
xc_functional PBE                                                               
cutoff_energy 830 eV                                                            
paw T                                                                           
geom_disp_tol 0.015 bohr                                                        
geom_energy_tol 1.5E-6 hartree                                                  
geom_force_tol 0.003 "ha/bohr"                                                  
EDFT_MAXIT 30                                                                   
pdos_max_l = 2                                                                  
dos_smear  0.1 eV                                                               
popn_calculate T                                                                
PDOS_PSEUDOATOMIC T                                                             
PDOS_REDUCE_SWS F                                                               
PDOS_CONSTRUCT_BASIS F                                                          
PDOS_LOWDIN T                                                                   
PDOS_ORTH_ATOM_BLOCKS F                                                         
PDOS_LCAO_OPTIMIZE F                                                            
pdos_optados_output T                                                           
homo_plot 0                                                                     
lumo_plot 0                                                                     
homo_dens_plot -1                                                               
lumo_dens_plot -1                                                               
%BLOCK SPECIES                                                                  
C C 6 4 9.0                                                                     
H H 1 1 9.0                                                                     
Li Li 3 5 9.0                                                                   
%ENDBLOCK SPECIES                                                               
%BLOCK SPECIES_POT                                                              
C "~/pp/paw/c_pbe_abinit.paw"                                                   
H "~/pp/paw/h_pbe_abinit.paw"                                                   
Li "~/pp/paw/li_pbe_abinit.paw"                                                 
%ENDBLOCK SPECIES_POT                                                           
%BLOCK SPECIES_ATOMIC_SET                                                       
C "SOLVE conf=2s2 2p2"                                                          
H "SOLVE conf=1s1"                                                              
Li "SOLVE conf=1s2 2s1 2p0"                                                     
%ENDBLOCK SPECIES_ATOMIC_SET                                                    
%BLOCK SPECIES_LDOS_GROUPS                                                      
C                                                                               
H                                                                               
Li                                                                              
%ENDBLOCK SPECIES_LDOS_GROUPS                                                   
%BLOCK LATTICE_CART                                                             
94.486315650000      0.000000000000       0.000000000000                        
0.000000000000       94.486315650000      0.000000000000                        
0.000000000000       0.000000000000       94.486315650000                       
%ENDBLOCK LATTICE_CART                                                          
%BLOCK POSITIONS_ABS                                                            
C 45.505792 50.682045 30.651123                                                 
C 45.440658 50.587208 36.777330                                                 
C 46.842902 53.027842 30.619433                                                 
C 48.136684 50.582280 36.783976                                                 
C 49.567296 48.362041 30.562315                                                 
C 49.482320 48.240816 36.768149                                                 
C 50.905907 50.709154 30.541954                                                 
C 52.174182 48.235572 36.761858                                                 
C 45.477455 55.356795 30.525511                                                 
C 45.451521 55.263269 36.770785                                                 
C 46.811660 57.698208 30.345087                                                 
C 48.147380 55.265317 36.788572                                                 
C 49.542950 53.037857 30.566076                                                 
C 49.484473 52.921494 36.801074                                                 
C 50.878075 55.381732 30.405558                                                 
C 52.176216 52.921820 36.816471                                                 
C 45.403226 50.476551 43.014672                                                 
C 45.376109 50.423500 49.146926                                                 
C 46.749204 52.816447 43.023938                                                 
C 48.078223 50.427744 49.172098                                                 
C 49.453961 48.146279 43.003599                                                 
C 49.429860 48.091144 49.229571                                                 
C 50.802600 50.482895 43.009329                                                 
C 52.130070 48.094940 49.362666                                                 
C 45.397081 55.154901 43.036897                                                 
C 45.368035 55.099220 49.275280                                                 
C 46.743378 57.487258 43.071711                                                 
C 48.069273 55.102377 49.306688                                                 
C 49.449152 52.817304 43.023294                                                 
C 49.422139 52.769426 49.248323                                                 
C 50.799222 55.150405 43.042950                                                 
C 52.120580 52.773764 49.387514                                                 
C 57.651427 48.407822 29.904965                                                 
C 57.543393 48.238323 36.757721                                                 
C 58.990131 50.756810 29.780769                                                 
C 60.260062 48.232740 36.732180                                                 
C 57.562021 48.160317 43.061636                                                 
C 57.505456 48.102843 49.842258                                                 
C 58.918442 50.485926 43.057152                                                 
C 60.231418 48.113706 50.085036                                                 
C 53.604359 50.723446 30.367591                                                 
C 53.514258 50.579618 36.788505                                                 
C 54.931643 53.067679 30.217718                                                 
C 56.214981 50.582724 36.769695                                                 
C 53.504204 50.488260 43.015974                                                 
C 53.471237 50.436295 49.444026                                                 
C 54.857254 52.820324 43.014926                                                 
C 56.160544 50.437884 49.707774                                                 
C 57.676228 43.740946 29.730983                                                 
C 57.583378 43.553423 36.831146                                                 
C 59.013010 46.065269 29.668050                                                 
C 60.307228 43.549322 36.934936                                                 
C 57.573221 43.495361 42.948946                                                 
C 57.519132 43.448595 50.105893                                                 
C 58.925653 45.819506 43.028681                                                 
C 60.222964 43.476322 50.423986                                                 
C 53.624897 46.052105 30.235233                                                 
C 53.526045 45.888898 36.741861                                                 
C 54.962997 48.393180 30.211946                                                 
C 56.220136 45.891845 36.757367                                                 
C 53.509565 45.820688 42.971618                                                 
C 53.476800 45.766122 49.542934                                                 
C 54.857932 48.154675 43.024908                                                 
C 56.172999 45.782706 49.794919                                                 
C 57.591606 57.752189 29.730007                                                 
C 57.577663 57.605544 36.940509                                                 
C 58.916051 60.113616 29.460189                                                 
C 60.296313 57.601324 36.934080                                                 
C 57.556456 57.489130 42.936860                                                 
C 57.501631 57.439613 50.089523                                                 
C 58.906179 59.844967 42.856861                                                 
C 60.221204 57.416743 50.335364                                                 
C 45.421058 64.679811 29.561837                                                 
C 45.473643 64.620806 36.788230                                                 
C 46.780826 67.022109 29.307343                                                 
C 48.169016 64.634742 36.686901                                                 
C 49.468219 62.349018 29.701498                                                 
C 49.529655 62.281297 36.729636                                                 
C 50.835259 64.717346 29.382838                                                 
C 52.238910 62.278132 36.796147                                                 
C 45.396746 64.505115 43.004212                                                 
C 45.368132 64.415728 50.184774                                                 
C 46.747612 66.859211 42.975604                                                 
C 48.055150 64.419959 50.245154                                                 
C 49.429364 62.138228 43.212652                                                 
C 49.406041 62.090002 50.022391                                                 
C 50.779804 64.484760 43.417111                                                 
C 52.086838 62.099803 50.176707                                                 
C 53.536923 60.046739 29.876203                                                 
C 53.554094 59.943040 36.867304                                                 
C 54.883916 62.417933 29.648282                                                 
C 56.252033 59.944543 36.951460                                                 
C 53.493252 59.810109 43.048709                                                 
C 53.440962 59.772811 49.969302                                                 
C 54.861221 62.166049 43.016364                                                 
C 56.161186 59.769785 50.123630                                                 
C 57.624591 53.081496 29.918091                                                 
C 57.549856 52.928381 36.850454                                                 
C 58.956961 55.443049 29.693492                                                 
C 60.272320 52.950711 36.897586                                                 
C 57.565675 52.819306 42.994545                                                 
C 57.486908 52.775172 49.942269                                                 
C 58.917365 55.172308 42.946791                                                 
C 60.215442 52.763293 50.306499                                                 
C 45.451079 60.020331 30.128180                                                 
C 45.472775 59.940581 36.747752                                                 
C 46.786809 62.349039 29.816873                                                 
C 48.166237 59.945216 36.751894                                                 
C 49.508684 57.706287 30.273290                                                 
C 49.500985 57.601227 36.789170                                                 
C 50.836860 60.037462 29.959957                                                 
C 52.197325 57.604324 36.835966                                                 
C 45.387539 59.828151 43.064139                                                 
C 45.368228 59.759504 49.657818                                                 
C 46.742390 62.158312 43.107572                                                 
C 48.063231 59.766796 49.700060                                                 
C 49.445286 57.482152 43.080732                                                 
C 49.414680 57.437907 49.516417                                                 
C 50.795215 59.819451 43.128328                                                 
C 52.107988 57.440228 49.649228                                                 
C 53.568692 55.393028 30.241065                                                 
C 53.527201 55.266672 36.849708                                                 
C 54.891694 57.741343 29.984126                                                 
C 56.218531 55.263092 36.884542                                                 
C 53.504423 55.149265 43.024911                                                 
C 53.461620 55.108007 49.579775                                                 
C 54.849706 57.484621 43.006370                                                 
C 56.152910 55.099595 49.841693                                                 
H 27.353802 41.281978 29.100450                                                 
H 28.217514 39.495605 36.883743                                                 
H 27.191424 41.120549 42.783213                                                 
H 28.207165 39.294978 50.324248                                                 
H 41.907963 30.235650 29.157738                                                 
C 42.934359 32.025093 29.282324                                                 
H 44.413707 30.142747 36.860995                                                 
H 41.800295 29.943183 42.926710                                                 
C 42.799318 31.754887 42.949903                                                 
H 44.394622 30.005434 50.561502                                                 
H 29.696766 37.200778 29.156598                                                 
C 30.721194 38.989688 29.293164                                                 
H 32.298663 37.164748 36.787923                                                 
H 33.775446 34.844119 29.170001                                                 
C 34.799867 36.629748 29.343162                                                 
H 29.524675 37.039084 42.655670                                                 
C 30.562392 38.825546 42.719158                                                 
H 32.272272 36.959200 50.334502                                                 
H 33.535658 34.664603 42.875564                                                 
C 34.598192 36.439388 42.879382                                                 
H 37.849825 32.547454 29.019086                                                 
C 38.863391 34.338869 29.218126                                                 
H 40.372269 32.474416 36.441491                                                 
H 37.629063 32.264754 43.470711                                                 
C 38.652026 34.062962 43.405405                                                 
H 40.333484 32.337505 50.427663                                                 
H 46.611522 30.261419 29.344834                                                 
H 46.492612 30.018355 42.590514                                                 
H 25.820085 48.285849 36.021519                                                 
C 27.871810 48.286098 36.269375                                                 
H 25.817829 48.036185 50.610496                                                 
C 27.879793 48.047178 50.454448                                                 
H 25.843481 43.541799 36.503791                                                 
H 27.340046 45.965644 29.152236                                                 
C 27.910930 43.559427 36.601945                                                 
H 25.836724 43.360201 50.459762                                                 
H 27.193768 45.786405 43.424941                                                 
C 27.901810 43.362926 50.387043                                                 
H 25.892049 57.666393 37.014015                                                 
H 27.260668 59.941610 29.376937                                                 
C 27.958247 57.658496 36.972628                                                 
H 25.809142 57.398170 50.613297                                                 
H 27.138032 59.784251 43.043057                                                 
C 27.874553 57.403685 50.538959                                                 
H 25.834849 53.009884 36.665673                                                 
H 27.285804 55.252150 29.316404                                                 
C 27.901863 52.976414 36.727261                                                 
H 25.798544 52.713016 50.591904                                                 
H 27.166872 55.101711 43.007972                                                 
C 27.861373 52.712859 50.466454                                                 
C 29.414881 41.273127 29.239472                                                 
C 29.240992 41.289571 36.793212                                                 
C 30.696362 43.632660 29.381631                                                 
C 31.919068 41.244646 36.891577                                                 
C 33.414595 38.913584 29.421218                                                 
C 33.319452 38.959370 36.707270                                                 
C 34.756034 41.292668 29.668435                                                 
C 35.975699 38.925386 36.814412                                                 
C 29.401529 45.967793 29.312773                                                 
C 29.177432 45.901288 36.543278                                                 
C 30.691830 48.283999 29.319608                                                 
C 31.915622 45.918449 36.720681                                                 
C 33.411842 43.621302 29.649246                                                 
C 33.277446 43.600453 36.815793                                                 
C 34.756375 45.968456 29.850389                                                 
C 35.983178 43.602610 36.792123                                                 
C 29.259912 41.105385 42.800862                                                 
C 29.223696 41.094509 50.316212                                                 
C 30.548544 43.448215 42.871385                                                 
C 31.911019 41.041986 50.214732                                                 
C 33.226677 38.756448 42.741848                                                 
C 33.295033 38.753576 50.222084                                                 
C 34.593752 41.118026 42.846120                                                 
C 35.946747 38.732510 50.259131                                                 
C 29.265785 45.789462 43.260494                                                 
C 29.179414 45.740786 50.358389                                                 
C 30.582216 48.120091 43.366191                                                 
C 31.904985 45.732632 50.137383                                                 
C 33.263031 43.453744 42.927163                                                 
C 33.253658 43.409724 50.080349                                                 
C 34.620905 45.791780 43.063378                                                 
C 35.959188 43.413739 49.864600                                                 
C 41.514682 38.996434 29.822543                                                 
C 41.402114 38.935237 36.622617                                                 
C 42.847957 41.326466 30.132697                                                 
C 44.089103 38.912110 36.715561                                                 
C 41.364413 38.759813 43.106656                                                 
C 41.373161 38.768741 50.023044                                                 
C 42.712947 41.104762 43.060654                                                 
C 44.054483 38.756921 49.877187                                                 
C 37.473121 41.299239 29.846981                                                 
C 37.342816 41.275450 36.775520                                                 
C 38.797796 43.639366 30.143602                                                 
C 40.041933 41.257670 36.704438                                                 
C 37.303998 41.108162 42.967425                                                 
C 37.308506 41.098854 49.973012                                                 
C 38.658859 43.451014 43.022386                                                 
C 40.003983 41.084637 49.803905                                                 
C 41.511912 34.316473 29.335742                                                 
C 41.406036 34.279422 36.536231                                                 
C 42.873664 36.670376 29.613454                                                 
C 44.083641 34.213208 36.866657                                                 
C 41.382178 34.014522 43.153660                                                 
C 41.366980 34.124020 50.286984                                                 
C 42.739281 36.410543 43.087689                                                 
C 44.047439 34.080882 50.372655                                                 
C 37.481538 36.594608 29.341937                                                 
C 37.362308 36.634764 36.529764                                                 
C 38.835539 38.975911 29.656072                                                 
C 40.047017 36.582217 36.448643                                                 
C 37.244891 36.371852 43.095500                                                 
C 37.337057 36.446098 50.143685                                                 
C 38.643141 38.759659 43.064726                                                 
C 40.004789 36.406103 50.335360                                                 
C 41.471076 48.323667 30.512942                                                 
C 41.388877 48.260724 36.765693                                                 
C 42.805476 50.669187 30.596073                                                 
C 44.087908 48.252861 36.768950                                                 
C 41.357864 48.134304 43.032056                                                 
C 41.330054 48.080783 49.270544                                                 
C 42.701136 50.475142 43.021812                                                 
C 44.030915 48.081962 49.188117                                                 
C 29.349667 55.267376 29.454692                                                 
C 29.223534 55.314022 36.929260                                                 
C 30.630688 57.612146 29.500083                                                 
C 31.952529 55.306108 36.881813                                                 
C 33.393101 52.973560 29.725352                                                 
C 33.293697 52.953154 36.780243                                                 
C 34.713352 55.301879 29.868485                                                 
C 35.999055 52.945328 36.750036                                                 
C 29.235485 55.113588 43.032420                                                 
C 29.158553 55.044532 50.463224                                                 
C 30.508891 57.462635 42.987874                                                 
C 31.882344 55.063627 50.239544                                                 
C 33.273089 52.809407 43.017684                                                 
C 33.239272 52.719700 50.012758                                                 
C 34.605570 55.150270 43.004361                                                 
C 35.928271 52.734694 49.691202                                                 
C 37.419132 50.645178 30.230923                                                 
C 37.341595 50.605216 36.738841                                                 
C 38.750453 52.989543 30.333662                                                 
C 40.039197 50.598999 36.751902                                                 
C 37.316702 50.473614 43.052853                                                 
C 37.277440 50.408570 49.519641                                                 
C 38.656813 52.817830 43.027781                                                 
C 39.975487 50.413973 49.313360                                                 
C 41.491013 43.651805 30.290773                                                 
C 41.390030 43.595673 36.747174                                                 
C 42.829197 45.992482 30.485105                                                 
C 44.087603 43.583670 36.746643                                                 
C 41.362340 43.450901 43.039583                                                 
C 41.344476 43.412656 49.508289                                                 
C 42.707860 45.789510 43.029257                                                 
C 44.044429 43.411076 49.416290                                                 
C 29.387115 50.612533 29.493339                                                 
C 29.166713 50.646353 36.576878                                                 
C 30.663843 52.961040 29.410413                                                 
C 31.927105 50.623774 36.681644                                                 
C 33.420938 48.288965 29.673408                                                 
C 33.275301 48.271318 36.699626                                                 
C 34.734704 50.634820 29.903085                                                 
C 35.980493 48.269428 36.733713                                                 
C 29.276051 50.459738 43.306063                                                 
C 29.156766 50.369042 50.396581                                                 
C 30.548508 52.810653 42.976825                                                 
C 31.895649 50.382279 50.128203                                                 
C 33.292006 48.127063 43.165746                                                 
C 33.248292 48.069637 49.953199                                                 
C 34.615374 50.469551 43.090626                                                 
C 35.935863 48.074230 49.667390                                                 
C 37.442554 45.970130 30.152938                                                 
C 37.330597 45.939631 36.760712                                                 
C 38.778637 48.310663 30.330190                                                 
C 40.035869 45.932862 36.765445                                                 
C 37.316252 45.785901 43.041788                                                 
C 37.292205 45.745708 49.619603                                                 
C 38.663037 48.133220 43.052377                                                 
C 39.987165 45.744517 49.429473                                                 
C 45.558670 32.039149 29.382636                                                 
C 45.466346 31.922038 36.857687                                                 
C 46.941819 34.340690 29.523873                                                 
C 48.087724 31.898485 36.884103                                                 
H 49.115644 30.105742 36.864573                                                 
H 50.659339 32.623882 29.348629                                                 
C 45.559375 36.682276 29.689418                                                 
C 45.435546 36.561620 36.819371                                                 
C 46.901982 39.026586 29.929502                                                 
C 48.122192 36.539406 36.897630                                                 
C 49.614943 34.402045 29.504217                                                 
C 49.487943 34.171870 36.946929                                                 
C 50.954792 36.689547 29.530693                                                 
C 52.168801 34.200493 36.884620                                                 
C 45.443431 31.788495 42.754947                                                 
C 45.440292 31.784795 50.425059                                                 
C 46.826143 34.089164 42.808395                                                 
C 48.059139 31.771019 50.360272                                                 
H 49.090014 29.981423 50.445643                                                 
H 50.551808 32.392653 42.655203                                                 
C 45.437562 36.439397 42.947412                                                 
C 45.412726 36.417686 50.092622                                                 
C 46.775473 38.790516 42.947657                                                 
C 48.095906 36.405739 50.058870                                                 
C 49.496509 34.164884 42.789659                                                 
C 49.468917 34.051361 50.260578                                                 
C 50.840569 36.459522 42.737870                                                 
C 52.144836 34.087749 50.244983                                                 
H 53.190383 32.403142 36.905262                                                 
H 53.173357 32.302144 50.390376                                                 
C 57.664486 39.085999 29.696059                                                 
C 57.607913 38.824730 36.968602                                                 
C 59.031637 41.397009 29.513962                                                 
C 60.288036 38.911087 37.063738                                                 
C 57.545558 38.840236 42.921297                                                 
C 57.547370 38.764907 50.390238                                                 
C 58.925584 41.128792 42.970928                                                 
C 60.232370 38.851560 50.548802                                                 
C 45.527813 46.005527 30.531793                                                 
C 45.436645 45.915061 36.761646                                                 
C 46.868440 48.348658 30.617489                                                 
C 48.134800 45.903440 36.754672                                                 
C 49.583472 43.694567 30.309485                                                 
C 49.482418 43.563888 36.748846                                                 
C 50.927056 46.035177 30.407201                                                 
C 52.183158 43.553568 36.738246                                                 
C 45.408300 45.798396 43.017690                                                 
C 45.385927 45.747640 49.253698                                                 
C 46.754323 48.139690 43.012913                                                 
C 48.086986 45.751834 49.272258                                                 
C 49.460157 43.477453 42.969051                                                 
C 49.442049 43.417377 49.440988                                                 
C 50.807122 45.813589 42.980218                                                 
C 52.136338 43.428554 49.581339                                                 
C 53.630672 41.401665 29.864678                                                 
C 53.532198 41.209651 36.778980                                                 
C 54.973159 43.726450 29.972294                                                 
C 56.246969 41.210307 36.843833                                                 
C 53.516548 41.165626 42.863828                                                 
C 53.488973 41.097611 49.860727                                                 
C 54.860803 43.492268 42.923020                                                 
C 56.195137 41.115122 50.126996                                                 
H 57.262329 34.736304 36.990178                                                 
H 58.697493 37.301645 29.513363                                                 
H 57.240792 34.680296 50.513355                                                 
H 58.575725 37.047991 42.853618                                                 
C 45.542619 41.342528 30.180326                                                 
C 45.440541 41.241008 36.746632                                                 
C 46.885052 43.678422 30.376338                                                 
C 48.133798 41.229042 36.767006                                                 
C 49.583576 39.043770 29.839371                                                 
C 49.481694 38.882466 36.826716                                                 
C 50.937382 41.371891 30.030332                                                 
C 52.182950 38.864754 36.824560                                                 
C 45.410723 41.120851 43.014099                                                 
C 45.400981 41.081008 49.586463                                                 
C 46.757472 43.464834 43.001735                                                 
C 48.097633 41.080961 49.585207                                                 
C 49.465392 38.812414 42.859669                                                 
C 49.449875 38.750776 49.834256                                                 
C 50.819434 41.144790 42.908433                                                 
C 52.152504 38.755553 49.953431                                                 
C 53.633360 36.748602 29.675438                                                 
C 53.556407 36.473449 36.921540                                                 
C 54.999539 39.043313 29.587255                                                 
C 56.231830 36.526308 36.914773                                                 
C 53.509814 36.516291 42.958932                                                 
C 53.529002 36.379295 50.219900                                                 
C 54.891549 38.806517 42.784299                                                 
C 56.197183 36.455991 50.346594                                                 
H 61.325647 37.129315 37.170375                                                 
H 62.738598 39.667733 29.379238                                                 
H 61.263208 37.063335 50.677171                                                 
H 62.618396 39.384634 43.029456                                                 
H 28.273382 61.722004 36.962058                                                 
H 28.168422 61.458412 50.642472                                                 
C 29.327203 59.964896 29.406174                                                 
C 29.289275 59.921467 36.930754                                                 
C 30.624289 62.247229 29.362489                                                 
C 31.962032 59.970003 36.878678                                                 
C 33.352206 57.642089 29.660491                                                 
C 33.316729 57.621118 36.827509                                                 
C 34.682384 59.975104 29.631864                                                 
C 36.022278 57.609086 36.711236                                                 
H 29.586381 64.032825 29.289122                                                 
H 32.325225 64.039192 36.298654                                                 
C 33.322775 62.338169 29.414256                                                 
C 33.360472 62.246927 36.495245                                                 
C 34.662195 64.620749 29.339503                                                 
C 36.036689 62.266471 36.407776                                                 
C 29.201612 59.801449 43.050014                                                 
C 29.190348 59.660814 50.557779                                                 
C 30.511151 62.100124 43.168116                                                 
C 31.870701 59.721089 50.497196                                                 
C 33.242244 57.488155 43.001962                                                 
C 33.225570 57.386606 50.222535                                                 
C 34.573893 59.835083 43.095072                                                 
C 35.931146 57.399030 49.940365                                                 
H 29.454842 63.877869 43.235792                                                 
H 32.234573 63.807622 50.732105                                                 
C 33.179500 62.191565 43.200031                                                 
C 33.251464 62.034075 50.362071                                                 
C 34.569603 64.548950 43.309899                                                 
C 35.922878 62.062587 50.348084                                                 
C 41.421334 57.675108 30.272180                                                 
C 41.419078 57.598871 36.728614                                                 
C 42.755233 60.008725 30.100953                                                 
C 44.116239 57.601960 36.751993                                                 
C 41.344585 57.496185 43.030360                                                 
C 41.316418 57.420459 49.535696                                                 
C 42.694268 59.833498 43.026263                                                 
C 44.017526 57.428281 49.449991                                                 
C 37.377108 59.986244 29.833390                                                 
C 37.387751 59.920759 36.617865                                                 
C 38.698142 62.318935 29.672441                                                 
C 40.076167 59.938732 36.694167                                                 
C 37.284758 59.844311 43.092769                                                 
C 37.280746 59.713786 50.027812                                                 
C 38.636600 62.190049 43.086473                                                 
C 39.966991 59.741453 49.841593                                                 
C 41.444818 53.001084 30.513802                                                 
C 41.399754 52.931797 36.751319                                                 
C 42.780979 55.344858 30.478781                                                 
C 44.097469 52.928306 36.769285                                                 
C 41.351207 52.814912 43.021755                                                 
C 41.319893 52.753327 49.273422                                                 
C 42.693851 55.159841 43.026090                                                 
C 44.019709 52.759713 49.193082                                                 
C 37.397780 55.320502 30.142496                                                 
C 37.356193 55.270284 36.735978                                                 
C 38.728585 57.663379 30.116104                                                 
C 40.059946 55.267783 36.729467                                                 
C 37.302320 55.161699 43.026124                                                 
C 37.270530 55.073328 49.651243                                                 
C 38.635600 57.506662 43.042354                                                 
C 39.965382 55.084964 49.442840                                                 
C 41.357096 67.025681 29.373453                                                 
C 41.428115 66.915128 36.829470                                                 
C 42.760995 69.320122 29.324319                                                 
C 44.102132 66.977724 36.874122                                                 
C 41.354849 66.892196 42.949061                                                 
C 41.318441 66.707186 50.382936                                                 
C 42.740588 69.166483 42.950804                                                 
C 43.992311 66.763298 50.355935                                                 
H 37.653843 68.765717 29.247705                                                 
H 40.391362 68.702598 36.893272                                                 
H 37.657453 68.657327 43.203359                                                 
H 40.280932 68.491688 50.521727                                                 
C 41.393162 62.328621 29.786809                                                 
C 41.436851 62.267241 36.773426                                                 
C 42.739486 64.678830 29.567397                                                 
C 44.126398 62.275834 36.775583                                                 
C 41.339786 62.180175 42.994926                                                 
C 41.331037 62.068879 50.047459                                                 
C 42.707640 64.522599 42.941506                                                 
C 44.015541 62.078635 49.934482                                                 
H 33.618528 66.399348 29.185776                                                 
H 33.530173 66.345111 43.313650                                                 
C 37.312693 64.682832 29.412288                                                 
C 37.417113 64.562303 36.467732                                                 
C 38.687965 66.979819 29.361000                                                 
C 40.085705 64.631867 36.831889                                                 
C 37.287261 64.586956 43.181160                                                 
C 37.287455 64.367704 50.321482                                                 
C 38.667438 66.852468 43.129543                                                 
C 39.977198 64.427417 50.388893                                                 
C 61.713167 41.463459 29.455008                                                 
C 61.590311 41.215429 37.100446                                                 
C 63.023612 43.732880 29.418615                                                 
H 63.651820 41.225228 37.215993                                                 
C 61.740407 46.084193 29.434659                                                 
C 61.586602 45.917570 36.765598                                                 
C 63.038612 48.431885 29.434356                                                 
H 63.670783 45.918514 36.734253                                                 
H 65.089358 43.739066 29.346864                                                 
C 61.604215 41.184337 43.031540                                                 
C 61.517293 41.112074 50.558237                                                 
C 62.936846 43.458516 43.092339                                                 
H 63.581787 41.140278 50.688141                                                 
C 61.663611 45.820101 43.150405                                                 
C 61.524482 45.798568 50.261943                                                 
C 62.964677 48.158120 43.416374                                                 
H 63.584825 45.808870 50.444524                                                 
H 65.005683 43.438574 43.139802                                                 
C 61.674256 55.450206 29.466000                                                 
C 61.573336 55.247613 36.906036                                                 
C 62.936616 57.822479 29.379822                                                 
H 63.637180 55.229402 36.982816                                                 
H 65.065342 53.153121 29.341883                                                 
C 61.645311 55.172337 42.907385                                                 
C 61.513651 55.089295 50.334521                                                 
C 62.914937 57.525396 42.914348                                                 
H 63.574332 55.085398 50.505990                                                 
H 65.028182 52.855826 43.038054                                                 
C 61.739386 50.770971 29.504873                                                 
C 61.553053 50.602029 36.466648                                                 
C 63.003229 53.126424 29.472641                                                 
H 65.100647 48.437246 29.309740                                                 
C 61.678057 50.495093 43.163963                                                 
C 61.510093 50.442294 50.193027                                                 
C 62.958694 52.832728 42.998503                                                 
H 65.038393 48.149509 43.540246                                                 
H 41.719718 71.105153 29.271254                                                 
H 44.457876 71.050153 37.028660                                                 
H 41.711484 70.959262 42.954332                                                 
H 44.332224 70.842282 50.517889                                                 
C 45.370160 69.319724 29.286332                                                 
C 45.492659 69.269230 36.907168                                                 
H 46.412408 71.104838 29.207729                                                 
C 48.133709 69.285674 36.721113                                                 
C 49.450327 66.997085 29.435783                                                 
C 49.538256 67.012068 36.563382                                                 
H 50.476127 68.790274 29.325847                                                 
C 52.251621 66.957668 36.338214                                                 
H 49.158808 71.080326 36.701414                                                 
C 45.366979 69.151245 42.964992                                                 
C 45.380884 69.061848 50.483503                                                 
H 46.416088 70.933385 42.952329                                                 
C 48.007127 69.068905 50.555862                                                 
C 49.421983 66.792227 43.330022                                                 
C 49.425471 66.772106 50.500061                                                 
H 50.457367 68.586710 43.493347                                                 
C 52.072119 66.742478 50.584945                                                 
H 49.038577 70.856570 50.652928                                                 
H 57.331275 66.382950 36.811006                                                 
H 57.156794 66.219146 50.598403                                                 
H 53.284624 68.736420 36.133209                                                 
H 53.092598 68.533180 50.749378                                                 
C 57.540017 62.394301 29.578055                                                 
C 57.624132 62.306377 36.981420                                                 
H 58.557530 64.187691 29.411631                                                 
C 60.306247 62.232920 36.967604                                                 
C 57.518354 62.137528 43.089746                                                 
C 57.507850 62.143817 50.366238                                                 
H 58.542679 63.933804 43.016680                                                 
C 60.202191 62.060967 50.474891                                                 
C 53.496486 64.685634 29.478671                                                 
C 53.648108 64.650915 36.681078                                                 
C 56.276183 64.603609 36.856617                                                 
C 53.462624 64.444935 43.336359                                                 
C 53.449413 64.478014 50.469177                                                 
C 56.126807 64.433975 50.454305                                                 
C 61.612557 60.064019 29.374217                                                 
C 61.602505 59.941133 36.931572                                                 
H 62.616559 61.869496 29.267149                                                 
H 63.668258 59.916235 36.901285                                                 
H 65.003006 57.829459 29.289218                                                 
H 61.342765 64.021886 36.945122                                                 
C 61.588656 59.789158 42.887776                                                 
C 61.506264 59.779646 50.504467                                                 
H 62.604214 61.589985 42.858254                                                 
H 63.568139 59.766883 50.634735                                                 
H 64.982692 57.534970 42.922658                                                 
H 61.230443 63.847744 50.609490                                                 
H 63.570283 50.444725 50.380202                                                 
H 36.310592 34.653284 50.262718                                                 
H 36.261683 66.130213 50.721652                                                 
H 27.203468 50.467121 43.482694                                                 
H 54.502774 66.238699 43.486053                                                 
H 63.634442 50.613401 36.291140                                                 
H 54.549450 34.730987 42.833858                                                 
H 36.305795 34.844097 36.402456                                                 
H 36.394468 66.361774 36.263548                                                 
H 54.518360 66.477038 29.327168                                                 
H 27.323508 50.601437 29.340996                                                 
H 54.672388 34.968254 29.490341                                                 
Li 58.878288 60.121650 33.434078                                                
Li 30.336766 43.378039 46.796539                                                
Li 44.067873 34.088624 32.937857                                                
Li 46.812158 67.020383 46.918557                                                
Li 60.272603 43.610033 46.513103                                                
Li 31.829610 60.122060 32.950079                                                
Li 51.255538 64.438207 33.197599                                                
Li 39.924191 65.059812 32.952306                                                
Li 60.468264 52.871410 46.478932                                                
Li 30.119861 52.831641 46.862845                                                
Li 35.470741 38.813838 46.389013                                                
Li 55.381564 38.538214 46.682271                                                
Li 36.090084 38.438029 32.938480                                                
Li 50.641078 36.192461 33.399615                                                
Li 39.950343 36.305120 46.551692                                                
Li 50.829360 35.906577 46.620891                                                
Li 54.833955 62.586831 46.872013                                                
Li 40.277452 64.642939 46.514862                                                
Li 30.469396 53.370660 33.288565                                                
Li 30.589716 48.049877 33.135032                                                
Li 31.685152 59.622976 46.570698                                                
Li 60.700757 53.382702 33.052252                                                
Li 55.071552 38.624653 33.423271                                                
Li 60.844212 48.094634 32.959405                                                
Li 46.492242 67.245607 33.251037                                                
Li 59.345617 59.796301 46.815903                                                
Li 31.561489 41.259917 32.936267                                                
Li 44.500704 33.741982 46.423439                                                
Li 59.435466 41.204491 33.451461                                                
Li 34.852498 64.419013 39.537063                                                
Li 28.264932 48.159347 40.113708                                                
Li 34.760852 64.159885 47.101205                                                
Li 51.983584 66.444938 40.168613                                                
Li 38.816921 34.456582 39.582714                                                
Li 62.970942 48.554480 39.610372                                                
Li 62.739960 48.492240 46.992480                                                
%ENDBLOCK POSITIONS_ABS                                                         

--------------------------------------------------------------------------------
-------------------------------- END INPUT FILE --------------------------------
--------------------------------------------------------------------------------


 
<<<<<<<<<<<<<<<<<<<<<<<<<<<<<<<<< Full system >>>>>>>>>>>>>>>>>>>>>>>>>>>>>>>>>>
<<<<<<<<<<<<<<<<<<<<<<<<<<< PAW Dataset information >>>>>>>>>>>>>>>>>>>>>>>>>>>
File: ~/pp/paw/c_pbe_abinit.paw; rc = 1.25 bohr; shape type =  3; rshape = 1.25 bohr;
  Atomic number:  6;  ionic charge:  4.000000
    Partial Wave 1: l = 0
    Partial Wave 2: l = 0
    Partial Wave 3: l = 1
    Partial Wave 4: l = 1
  Core charge supplied for Nonlinear Core Corrections
File: ~/pp/paw/h_pbe_abinit.paw; rc = 0.90 bohr; shape type =  3; rshape = 0.90 bohr;
  Atomic number:  1;  ionic charge:  1.000000
    Partial Wave 1: l = 0
    Partial Wave 2: l = 0
File: ~/pp/paw/li_pbe_abinit.paw; rc = 1.42 bohr; shape type =  3; rshape = 1.42 bohr;
  Atomic number:  3;  ionic charge:  3.000000
    Partial Wave 1: l = 0
    Partial Wave 2: l = 0
    Partial Wave 3: l = 0
    Partial Wave 4: l = 1
    Partial Wave 5: l = 1
<<<<<<<<<<<<<<<<<<<<<<<<<<<<<<<<<<<<<<< >>>>>>>>>>>>>>>>>>>>>>>>>>>>>>>>>>>>>>>

-------------------------- Atom counting information ---------------------------
Symbol    Natoms    Nngwfs    Nprojs
  C        484      1936      3872
  H        108       108       216
  Li        36       180       324
.......   ......    ......    ......
Totals:    628      2224      4412
--------------------------------------------------------------------------------

=============================== PSINC grid sizes ===============================
                      Simulation cell:  189 x 189 x 189
                              FFT-box:  117 x 117 x 117
                                  PPD:    7 x   7 x   1
Grid space d1=  0.499927596032a0 (KE cutoff=  30.39413Eh = 827.06648eV)
Grid space d2=  0.499927596032a0 (KE cutoff=  30.39413Eh = 827.06648eV)
Grid space d3=  0.499927596032a0 (KE cutoff=  30.39413Eh = 827.06648eV)
================================================================================
  
WARNING in cell_grid_distribute:
Average of less than one 23-slab per node, so workload cannot be
equally balanced between nodes.

********************* Fourier parallelisation information **********************
       Coarse grid (whole simulation cell) dimensions:    189   189   189
          Real-space ('12') slabs/node (min max mean):      1     2     1
         Recip-space ('23') slabs/node (min max mean):      0     1     0
********************************************************************************

********************* Fourier parallelisation information **********************
       Double grid (whole simulation cell) dimensions:    378   378   378
          Real-space ('12') slabs/node (min max mean):      2     3     2
         Recip-space ('23') slabs/node (min max mean):      1     2     1
********************************************************************************

Atom SCF Calculation for C  : Z (AE atom) =   6 : Z (PS atom) =   4
Config String: 2s2 2p2
Orbitals (num,occ):  2     2.00 2.00
Orbitals   (num,l):  2        0    1
Real-space Grid (nr,dr,rmax): 1377    0.0065406977    9.0000000000
Spherical Bessel Basis (nsws,lmax,cutoff):   37    2  183.0099912382
Confining potential (l,width,scale):  0    3.0000000000  100.0000000000
Confining potential (l,width,scale):  1    3.0000000000  100.0000000000
  1         -5.4350126632   -1.2715272878    4.5135247139   -1.5681949477
  2         -5.3876836850   -1.3562195125    4.4235426751   -1.5380057521
  3         -5.3928844498   -1.3758175853    4.4021699684   -1.5318377811
  4         -5.3988962903   -1.3800385428    4.3975423583   -1.5307324410
  5         -5.4018428823   -1.3823489590    4.3950111904   -1.5301555648
  6         -5.4033571720   -1.3835805046    4.3936635548   -1.5298576834
  7         -5.4041480647   -1.3842324820    4.3929512000   -1.5297032953
  8         -5.4045641108   -1.3845769138    4.3925755232   -1.5296229456
  9         -5.4047838258   -1.3847587737    4.3923775340   -1.5295810042
 10         -5.4049001347   -1.3848548089    4.3922731819   -1.5295590658
 11         -5.4049618018   -1.3849055476    4.3922181562   -1.5295475724
 12         -5.4049945351   -1.3849323732    4.3921891206   -1.5295415432
 13         -5.4050119258   -1.3849465673    4.3921737867   -1.5295383767
 14         -5.4050211723   -1.3849540841    4.3921656816   -1.5295367119
 15         -5.4050260920   -1.3849580684    4.3921613935   -1.5295358358
 16         -5.4050287113   -1.3849601822    4.3921591228   -1.5295353742
 17         -5.4050301068   -1.3849613045    4.3921579192   -1.5295351307
 18         -5.4050308507   -1.3849619010    4.3921572806   -1.5295350022
 19         -5.4050312476   -1.3849622183    4.3921569415   -1.5295349343
 20         -5.4050314594   -1.3849623873    4.3921567612   -1.5295348984
 21         -5.4050315725   -1.3849624773    4.3921566653   -1.5295348794
 22         -5.4050316330   -1.3849625253    4.3921566143   -1.5295348693
Atom SCF converged after  22 iterations to a total energy of     -5.40503163

Atom SCF Calculation for H  : Z (AE atom) =   1 : Z (PS atom) =   1
Config String: 1s1
Orbitals (num,occ):  1     1.00
Orbitals   (num,l):  1        0
Real-space Grid (nr,dr,rmax): 1377    0.0065406977    9.0000000000
Spherical Bessel Basis (nsws,lmax,cutoff):   37    1  183.0099912382
Confining potential (l,width,scale):  0    3.0000000000  100.0000000000
  1         -0.3605254152   -0.2399954029    0.2820952946   -0.2424203210
  2         -0.4156854077   -0.2398249290    0.2871789324   -0.2464796203
  3         -0.4412552402   -0.2379720642    0.2899127187   -0.2499011370
  4         -0.4517265951   -0.2371980236    0.2908966173   -0.2514141636
  5         -0.4557775773   -0.2369735141    0.2911607883   -0.2519713623
  6         -0.4573363459   -0.2369240355    0.2912108681   -0.2521663171
  7         -0.4579443228   -0.2369187864    0.2912112833   -0.2522344454
  8         -0.4581858602   -0.2369215483    0.2912049187   -0.2522587615
  9         -0.4582834939   -0.2369242589    0.2912002081   -0.2522677042
 10         -0.4583235236   -0.2369258837    0.2911975892   -0.2522710965
 11         -0.4583401154   -0.2369267223    0.2911962825   -0.2522724192
 12         -0.4583470483   -0.2369271266    0.2911956643   -0.2522729467
 13         -0.4583499624   -0.2369273145    0.2911953803   -0.2522731607
 14         -0.4583511926   -0.2369274000    0.2911952521   -0.2522732486
 15         -0.4583517136   -0.2369274385    0.2911951948   -0.2522732850
 16         -0.4583519349   -0.2369274556    0.2911951693   -0.2522733002
 17         -0.4583520290   -0.2369274632    0.2911951581   -0.2522733066
Atom SCF converged after  17 iterations to a total energy of     -0.45835203

Atom SCF Calculation for Li : Z (AE atom) =   3 : Z (PS atom) =   3
Config String: 1s2 2s1 2p0
Orbitals (num,occ):  3     2.00 1.00 0.00
Orbitals   (num,l):  3        0    0    1
Real-space Grid (nr,dr,rmax): 1377    0.0065406977    9.0000000000
Spherical Bessel Basis (nsws,lmax,cutoff):   37    2  183.0099912382
Confining potential (l,width,scale):  0    3.0000000000  100.0000000000
Confining potential (l,width,scale):  1    3.0000000000  100.0000000000
  1         -6.0640888065   -4.6655401716    2.5388576516   -0.9989538799
  2         -6.9627542978   -4.0954079129    2.9808988108   -1.1965571426
  3         -7.2692687601   -3.8889996707    3.2029735703   -1.3193883705
  4         -7.3784440298   -3.8322099748    3.2868571989   -1.3711018151
  5         -7.4170278248   -3.8191968371    3.3144974220   -1.3911175539
  6         -7.4303549880   -3.8172386945    3.3228486489   -1.3986896266
  7         -7.4348052089   -3.8175483495    3.3251259310   -1.4015352495
  8         -7.4362242328   -3.8180607346    3.3256233205   -1.4026016384
  9         -7.4366459715   -3.8184145665    3.3256561549   -1.4029998726
 10         -7.4367560626   -3.8186169740    3.3256001574   -1.4031477379
 11         -7.4367765260   -3.8187239825    3.3255481763   -1.4032021548
 12         -7.4367751741   -3.8187782620    3.3255144587   -1.4032219192
 13         -7.4367707398   -3.8188051288    3.3254952336   -1.4032289600
 14         -7.4367680349   -3.8188156035    3.3254870176   -1.4032309087
 15         -7.4367661982   -3.8188217406    3.3254819951   -1.4032318132
 16         -7.4367650112   -3.8188253257    3.3254789583   -1.4032322224
 17         -7.4367642682   -3.8188274151    3.3254771375   -1.4032324006
 18         -7.4367638134   -3.8188286307    3.3254760529   -1.4032324736
 19         -7.4367635392   -3.8188293370    3.3254754103   -1.4032325004
 20         -7.4367633760   -3.8188297469    3.3254750310   -1.4032325080
 21         -7.4367632796   -3.8188299846    3.3254748079   -1.4032325082
Atom SCF converged after  21 iterations to a total energy of     -7.43676328

Determining parallel strategy ...
... using space-filling curve
... NGWF load balancing: max     16;  min     12;  average     14
... Projector load balancing: max     32;  min     24;  average     28
... done
Calculating Ewald energy ...
              Ewald: real-space energy =   36420.603312
        Ewald: reciprocal-space energy =   36142.280024
         Ewald: (sum_charge)**2 Energy =    2861.754728
         Ewald: (sum_charge**2) Energy =     253.220333
                          Ewald Energy =   69447.908275
======================= Empirical dispersion information =======================
Model : Grimme D2
Dispersion Correction Energy: -0.23169554E+01 Hartree
================================================================================
Basis initialisation ...... NGWF spheres initialised
... Projector spheres initialised
... NGWF tight boxes initialised
... Projector tight boxes initialised
... Tight-boxes gathered
... NGWF basis size (local,global):     281350  44862840
... PAW projector initialisation
... done

============================= Charge Augmentation ==============================
                           Aug box size:   13 x  13 x  13
================================================================================

========================== Sparse matrix information ===========================
                        Overlap matrix filling:  37.12%
                        Density kernel filling: 100.00%
              NGWF-Proj overlap matrix filling:  10.42%
                    Aug Overlap matrix filling:  41.42%
                    Hamiltonian matrix filling:  41.42%
                  NGWF diagonal matrix filling:   0.18%
                             KS matrix filling: 100.00% 
                           KSKS matrix filling: 100.00% 
================================================================================

Sparse matrix initialisation ... done
NGWF initialisation ...... done
============ Calculation of NGWF S^-1 using Hotelling algorithm ================ 
         Iteration  |  Frobenius norm and Maximum abs value    (of I-S*S_n^-1)   
               1       0.46848088E+02     0.99660654E+00
               2       0.46553620E+02     0.99323554E+00
               3       0.46009671E+02     0.98655856E+00
               4       0.45071189E+02     0.97344963E+00
               5       0.43617077E+02     0.94811153E+00
               6       0.41639864E+02     0.90040895E+00
               7       0.39202222E+02     0.81437498E+00
               8       0.36344594E+02     0.78867815E+00
               9       0.33255740E+02     0.76793611E+00
              10       0.30239415E+02     0.74653417E+00
              11       0.27127696E+02     0.73009279E+00
              12       0.23278683E+02     0.70120743E+00
              13       0.18249183E+02     0.64921105E+00
              14       0.12253396E+02     0.56056612E+00
              15       0.67175197E+01     0.47994991E+00
              16       0.34859498E+01     0.41724135E+00
              17       0.22347256E+01     0.34129733E+00
              18       0.13988865E+01     0.26880805E+00
              19       0.67287881E+00     0.17187875E+00
              20       0.21696302E+00     0.71726803E-01
              21       0.32615680E-01     0.12560323E-01
              22       0.94702058E-03     0.38537853E-03
              23       0.88633868E-06     0.36280480E-06
              24       0.78684127E-12     0.32507330E-12
================================================================================
Calculating core density ...
================================= Core Density =================================
               Core den box size:   21 x  21 x  21
================================================================================
 ... done
Up spin density kernel initialisation ...... done
Down spin density kernel initialisation ...... done

Writing density kernel to file "36/592nano.dkn" ... done

>>> Optimising kernel for current NGWFs:

--------------------------- Ensemble-DFT optimisation --------------------------
Running ScaLAPACK on  160 processor(s).

--------------------------------------------------------------------------------
  Iter                              Commutator    Free_energy(A=E-TS)     DeltaA
#    0                          0.001255995030   -3088.16380540007867  -3.09E+03

Step                       =       0.381966011250
Energy                     =   -3088.129348874566
Entropy (-TS)              =      -0.034456525287
Free energy (A=E-TS)       =   -3088.163805400079
Est. 0K Energy 0.5*(E+A)   =   -3088.146577137322
Residual Non-orthogonality =       0.000000000000
Residual N_electrons       =      -0.000000000226

Spin          Integrated_Ne            Fermi_level     Delta_Fermi_level
   1      1075.999999999517        -0.231833260505             -2.32E-01
   2      1075.999999999510        -0.231833260508             -2.32E-01

                           Spin 1           |                 Spin 2           |
     Orb |    H-eigenvalues     Occupancies |    H-eigenvalues     Occupancies |
       1 |    -1.8806089614    1.0000000000 |    -1.8806089614    1.0000000000 | 
                          ------                             ------
    1072 |    -0.2471273560    0.9920727763 |    -0.2471273560    0.9920727763 | 
    1073 |    -0.2390104437    0.9060537065 |    -0.2390104437    0.9060537065 | 
    1074 |    -0.2378957493    0.8715107139 |    -0.2378957493    0.8715107139 | 
    1075 |    -0.2326069859    0.5607787496 |    -0.2326069859    0.5607787496 | 
    1076 |    -0.2308429942    0.4224555013 |    -0.2308429942    0.4224555013 | 
                 - Gap at zero temperature - |     - Gap at zero temperature -
    1077 |    -0.2291532941    0.3002166298 |    -0.2291532941    0.3002166298 | 
    1078 |    -0.2280204527    0.2307662591 |    -0.2280204527    0.2307662591 | 
    1079 |    -0.2275646563    0.2062108523 |    -0.2275646563    0.2062108523 | 
    1080 |    -0.2266281158    0.1619683712 |    -0.2266281158    0.1619683712 | 
    1081 |    -0.2261851412    0.1438671719 |    -0.2261851412    0.1438671719 | 
                          ------                             ------
    2224 |     0.5569777670    0.0000000000 |     0.5569777670    0.0000000000 | 

                       |  Abs_value |  Threshold | Converged
     Delta_Free_energy |   3.09E+03 |   1.00E-06 |        No
     Delta_Energy      |   3.09E+03 |   1.00E-04 |        No
     Delta_Entropy     |   3.45E-02 |   1.00E-04 |        No
     Commutator        |   1.26E-03 |   1.00E-05 |        No
     Delta_Fermi_level |   2.32E-01 |   1.00E-03 |        No

  Line search of the free energy minimum:
  Step_type        Step             Free_energy   Predicted_free_energy
.   Initial    0.000000    -3088.16380540007867
.    Trial1    0.381966    -3089.26055020917147
.    Trial2    0.618034    -3088.01051435211548
. Quadratic    0.299632    -3089.31237182197947    -3089.35012547916540

--------------------------------------------------------------------------------
  Iter                              Commutator    Free_energy(A=E-TS)     DeltaA
#    1                          0.000621756210   -3089.31237182197947  -1.15E+00

Step                       =       0.299631696456
Energy                     =   -3089.275965730628
Entropy (-TS)              =      -0.036406091414
Free energy (A=E-TS)       =   -3089.312371821979
Est. 0K Energy 0.5*(E+A)   =   -3089.294168776304
Residual Non-orthogonality =       0.000000000000
Residual N_electrons       =       0.000000000062

Spin          Integrated_Ne            Fermi_level     Delta_Fermi_level
   1      1076.000000000749        -0.207237057613              2.46E-02
   2      1075.999999999551        -0.207237057636              2.46E-02

                           Spin 1           |                 Spin 2           |
     Orb |    H-eigenvalues     Occupancies |    H-eigenvalues     Occupancies |
       1 |    -1.9359193632    1.0000000000 |    -1.9359193632    1.0000000000 | 
                          ------                             ------
    1072 |    -0.2183410983    0.9708687235 |    -0.2183410983    0.9708687232 | 
    1073 |    -0.2138300193    0.8891307514 |    -0.2138300193    0.8891307503 | 
    1074 |    -0.2123821876    0.8354427966 |    -0.2123821876    0.8354427951 | 
[...]
 C   241 -- C   279       -0.09      0.00      5.42240
 C   234 -- C   332       -0.09      0.00      5.42272
 C    36 -- C    98       -0.08      0.00      5.42294
 C    39 -- C   516       -0.07      0.00      5.42408
 C    75 -- C   463       -0.09     -0.00      5.42413
 C   224 -- C   242       -0.08     -0.00      5.42431
 C    88 -- C   560       -0.08      0.00      5.42450
 C   332 -- C   388       -0.08      0.00      5.42452
 C    78 -- C   540       -0.06      0.00      5.42501
 C   182 -- C   220       -0.08     -0.00      5.42508
 C   481 -- C   489       -0.08      0.00      5.42606
 C   199 -- C   241       -0.08      0.00      5.42608
 C   183 -- C   237       -0.07      0.00      5.42639
 C   220 -- C   238       -0.08      0.00      5.42642
 C   385 -- C   395       -0.09     -0.00      5.42668
 C   338 -- C   380       -0.07      0.00      5.42702
 H   174 -- Li  611       -0.03      0.00      5.42709
 C   189 -- C   255       -0.08      0.00      5.42711
 C    55 -- C   525       -0.08      0.00      5.42726
 C   477 -- C   485       -0.08     -0.00      5.42901
 C   319 -- C   361       -0.08      0.00      5.42917
 C   186 -- C   212       -0.08     -0.00      5.42981
 C   420 -- C   444       -0.08     -0.00      5.43037
 C   262 -- C   292       -0.08      0.00      5.43071
 C   293 -- C   295       -0.08      0.00      5.43125
 H   577 -- Li  618       -0.02     -0.00      5.43127
 C   285 -- C   287       -0.08     -0.00      5.43130
 C   202 -- C   216       -0.08     -0.00      5.43167
 C   197 -- C   295       -0.08      0.00      5.43184
 C   153 -- C   215       -0.06      0.00      5.43201
 C   406 -- C   440       -0.08     -0.00      5.43221
 C    35 -- C   497       -0.07     -0.00      5.43297
 C   445 -- C   467       -0.08      0.00      5.43304
 C   440 -- C   488       -0.08      0.00      5.43317
 C   227 -- C   309       -0.08      0.00      5.43322
 C   316 -- C   390       -0.08      0.00      5.43467
 C    83 -- C    85       -0.08     -0.00      5.43467
 C   343 -- C   506       -0.08      0.00      5.43483
 C   261 -- C   427       -0.08      0.00      5.43507
 C   470 -- C   547       -0.08     -0.00      5.43508
 C    85 -- C    95       -0.08     -0.00      5.43547
 C   103 -- C   525       -0.08      0.00      5.43552
 C   368 -- C   394       -0.08      0.00      5.43553
 C   330 -- C   394       -0.08      0.00      5.43555
 C   212 -- C   230       -0.08      0.00      5.43578
 C   429 -- C   443       -0.06     -0.00      5.43625
 C   198 -- C   204       -0.08     -0.00      5.43701
 H   587 -- Li  608       -0.02     -0.00      5.43716
 C   254 -- C   284       -0.08      0.00      5.43756
 C   253 -- C   413       -0.08      0.00      5.43967
 C    51 -- C   521       -0.07      0.00      5.44090
 C    99 -- C   521       -0.08      0.00      5.44112
 C   185 -- C   235       -0.07     -0.00      5.44121
 C    52 -- C   338       -0.08     -0.00      5.44143
 C   201 -- C   239       -0.08      0.00      5.44214
 C   444 -- C   492       -0.08     -0.00      5.44238
 C    96 -- C   567       -0.07      0.00      5.44431
 C   466 -- C   538       -0.08      0.00      5.44511
 C    34 -- C    52       -0.08     -0.00      5.44582
 C   181 -- C   183       -0.08     -0.00      5.44610
 C    34 -- C   100       -0.08      0.00      5.44731
 C   364 -- C   390       -0.07      0.00      5.44821
 C    72 -- C   560       -0.08     -0.00      5.45055
 H   582 -- Li  607       -0.02      0.00      5.45418
 C    80 -- C   538       -0.06     -0.00      5.45508
 C   231 -- C   323       -0.08      0.00      5.45541
 C   527 -- Li  627       -0.07     -0.00      5.45738
 H   590 -- Li  599       -0.02     -0.00      5.45739
 C   427 -- C   445       -0.07     -0.00      5.45828
 C    91 -- Li  599       -0.07      0.00      5.46299
 H   398 -- Li  621       -0.02     -0.00      5.46400
 C   190 -- Li  623       -0.06      0.00      5.46459
 H   130 -- Li  619       -0.02     -0.00      5.46603
 C   188 -- C   286       -0.06      0.00      5.46642
 C   190 -- C   284       -0.06      0.00      5.47086
 C    76 -- Li  625       -0.07      0.00      5.47266
 C   423 -- C   489       -0.07      0.00      5.47267
 H   587 -- Li  604       -0.02      0.00      5.47701
 C    76 -- C   564       -0.06     -0.00      5.47912
 C   111 -- Li  599       -0.07     -0.00      5.47943
 C   231 -- C   241       -0.06      0.00      5.47965
 Li  597 -- Li  628       -0.12     -0.00      5.49123
 H   370 -- Li  615       -0.02     -0.00      5.49410
 C   233 -- C   239       -0.06      0.00      5.49453
 Li  613 -- Li  624       -0.11     -0.00      5.50681
 H   561 -- Li  609       -0.02      0.00      5.51657
 Li  599 -- Li  617       -0.14     -0.00      5.52932
 C   241 -- Li  626       -0.06     -0.00      5.53815
 H   581 -- Li  601        0.02      0.00      5.54358
 H   519 -- Li  601       -0.03     -0.00      5.54676
 H   162 -- Li  612       -0.02     -0.00      5.54681
 H   141 -- Li  605       -0.02      0.00      5.55107
 H   474 -- Li  610       -0.03      0.00      5.55588
 H   154 -- Li  607       -0.02      0.00      5.55985
 Li  610 -- Li  624       -0.12      0.00      5.56866
 H   135 -- Li  595       -0.02     -0.00      5.57499
 H   131 -- Li  594       -0.02     -0.00      5.57640
 H   138 -- Li  620       -0.02      0.00      5.57643
 H   157 -- Li  612       -0.02     -0.00      5.58004
 H   544 -- Li  596       -0.02      0.00      5.58564
 H   152 -- Li  607       -0.02     -0.00      5.58617
 H   553 -- Li  599       -0.02     -0.00      5.58656
 H   535 -- Li  617       -0.02     -0.00      5.59002
 H   509 -- Li  597        0.00      0.00      5.59122
 C   286 -- Li  623       -0.06     -0.00      5.59142
 H   370 -- Li  621       -0.02      0.00      5.59334
 H   401 -- Li  598       -0.02      0.00      5.59487
 C   238 -- Li  605       -0.06      0.00      5.60559
 C   233 -- Li  626       -0.07     -0.00      5.61139
 H   524 -- Li  616       -0.02     -0.00      5.61735
 H   591 -- Li  612       -0.02      0.00      5.61901
 C   445 -- Li  622       -0.06     -0.00      5.64677
 H   496 -- Li  621       -0.01     -0.00      5.65241
 C    87 -- Li  609       -0.06      0.00      5.65461
 C    39 -- Li  627       -0.05     -0.00      5.65982
 C   324 -- Li  620       -0.04     -0.00      5.66090
 C   163 -- Li  619       -0.05     -0.00      5.66141
 C   309 -- Li  606       -0.05     -0.00      5.66877
=============================================================


============== Orbital energy and occupancy information for spin 1 =============

      Total number of orbitals:    2224
        Occupancy sum (kernel):    1076.000000003
   Occupancy sum (eigenvalues):    1076.000000003
                 HOMO-LUMO gap:       0.002847953 Eh
                 Mid-gap level:      -0.076305079 Eh

                        Orbital | Energy (Eh) | Occupancy
                            1    -1.847035900   1.0000000
                        .......   ...........   .........
                         1068    -0.099721265   0.9984521
                         1069    -0.099339270   0.9982600
                         1070    -0.095566851   0.9943165
                         1071    -0.093774664   0.9900417
                         1072    -0.089718871   0.9649712
                         1073    -0.086840223   0.9169828
                         1074    -0.085795283   0.8882348
                         1075    -0.079963003   0.5580939
                         1076    -0.078219478   0.4206206
                         1077    -0.077729055   0.3843912
                        ....... -- gap at 0K -- .........
                         1078    -0.074881102   0.2033975
                         1079    -0.074329222   0.1753723
                         1080    -0.073847077   0.1553382
                         1081    -0.072249412   0.0996985
                         1082    -0.072123617   0.0960992
                         1083    -0.071025836   0.0700610
                         1084    -0.069556298   0.0450962
                         1085    -0.065853949   0.0144072
                         1086    -0.064470256   0.0093626
                         1087    -0.063058770   0.0060077
                        .......   ...........   .........
                         2224     0.773597769   0.0000000

================================================================================

============== Orbital energy and occupancy information for spin 2 =============

      Total number of orbitals:    2224
        Occupancy sum (kernel):    1075.999999998
   Occupancy sum (eigenvalues):    1075.999999998
                 HOMO-LUMO gap:       0.000490422 Eh
                 Mid-gap level:      -0.077974266 Eh

                        Orbital | Energy (Eh) | Occupancy
                            1    -1.847035899   1.0000000
                        .......   ...........   .........
                         1067    -0.101165883   0.9990259
                         1068    -0.099721265   0.9984521
                         1069    -0.099339270   0.9982600
                         1070    -0.095566851   0.9943165
                         1071    -0.093774664   0.9900417
                         1072    -0.089718871   0.9649712
                         1073    -0.086840223   0.9169828
                         1074    -0.085795283   0.8882348
                         1075    -0.079963003   0.5580939
                         1076    -0.078219477   0.4206206
                        ....... -- gap at 0K -- .........
                         1077    -0.077729055   0.3843912
                         1078    -0.074881102   0.2033975
                         1079    -0.074329221   0.1753723
                         1080    -0.073847077   0.1553382
                         1081    -0.072249412   0.0996985
                         1082    -0.072123617   0.0960992
                         1083    -0.071025836   0.0700610
                         1084    -0.069556298   0.0450962
                         1085    -0.065853949   0.0144072
                         1086    -0.064470257   0.0093626
                        .......   ...........   .........
                         2224     0.773597769   0.0000000

================================================================================

===================== Writing canonical molecular orbitals =====================
    Spin 1
| Orbital  Energy (eV)  Norm     |
| HOMO     -2.11511522  1.000000 | Writing "36/592nano_HOMO_UP.cube" ... done
Writing "36/592nano_HOMO_UP.dx" ... done
| LUMO     -2.03761846  1.000000 | Writing "36/592nano_LUMO_UP.cube" ... done
Writing "36/592nano_LUMO_UP.dx" ... done
================================================================================

===================== Writing canonical molecular orbitals =====================
    Spin 2
| Orbital  Energy (eV)  Norm     |
| HOMO     -2.12846028  1.000000 | Writing "36/592nano_HOMO_DN.cube" ... done
Writing "36/592nano_HOMO_DN.dx" ... done
| LUMO     -2.11511521  1.000000 | Writing "36/592nano_LUMO_DN.cube" ... done
Writing "36/592nano_LUMO_DN.dx" ... done
================================================================================

================== Local Density of States (LDOS) calculation ==================
Writing "36/592nano_UP_LDOS.txt" ...  done
================================================================================

================== Local Density of States (LDOS) calculation ==================
Writing "36/592nano_DN_LDOS.txt" ...  done
================================================================================
 
=============== Density of States (DOS) calculation for UP spin ================
Writing "36/592nano_UP_DOS.txt" ...  done
================================================================================
 
============== Density of States (DOS) calculation for DOWN spin ===============
Writing "36/592nano_DN_DOS.txt" ...  done
================================================================================
 
Writing bands to file "36/592nano.val_bands" ... done
 
================ Projected Density of States (pDOS) calculation ================
 
Constructing AM resolved functions  ...... done
Writing NGWF plot files in formats: CUBE DX ...  done
 
Performing overlap integrals ...  done
 
Computing pDOS weights ...  done
 
All bands spilling parameter =   3.05 %
Occupancy-weighted spilling parameter =   0.87 %
 
 => Outputting data for OptaDOS <=
 
Writing pDOS weights to file "36/592nano.val_pdos_bin" ... done
 
Writing band gradients to file "36/592nano.val_dome_bin" ... done
 
Writing Castep output cell file to "36/592nano-out.cell" ... done
 
 => Computing Gaussian smeared pDOS for UP spin<= 
Writing "36/592nano_UP_PDOS.txt" ...  done
 
 => Computing Gaussian smeared pDOS for DOWN spin<= 
Writing "36/592nano_DN_PDOS.txt" ...  done
 
 => Computing Occupancy-weighted Gaussian smeared pDOS for UP spin<= 
Writing "36/592nano_occ_UP_PDOS.txt" ...  done
  => Band centres for UP spin channel: 
 S band centre of group 1:  -18.262171 eV
 P band centre of group 1:   -8.246105 eV
  Band centres for UP spin channel done. <= 
  => Integrated number of electrons in each AM band for UP spin channel: 
 S num electrons of group 1:  300.847454
 P num electrons of group 1:  765.839113
  Integrated number of electrons for UP spin channel done. <= 
 
 => Computing Occupancy-weighted Gaussian smeared pDOS for DOWN spin<= 
Writing "36/592nano_occ_DN_PDOS.txt" ...  done
  => Band centres for DOWN spin channel: 
 S band centre of group 1:  -18.262171 eV
 P band centre of group 1:   -8.246105 eV
  Band centres for DOWN spin channel done. <=
  => Integrated number of electrons in each AM band for DOWN spin channel: 
 S num electrons of group 1:  300.847454
 P num electrons of group 1:  765.839113
  Integrated number of electrons for DOWN spin channel done. <=
================================================================================

------------------------------ TIMING INFORMATION ------------------------------
AVERAGE TIME:   15598.066s on    160 node(s)                                    
TOTAL TIME:     15598.075s on    160 node(s)                                    
================= AVERAGE TIMINGS FROM ALL NODES (CUMULATIVE) ==================
|| TAG                                    #calls    cpu time   %total  Gflops ||
|| work_imbalance                       :     1        0.00s   0.000%  ------ ||
|| paw_tcore_density                    :     1        0.01s   0.000%  ------ ||
|| sparse_set_to_garbage                :   237        0.01s   0.000%  ------ ||
|| paw_sphere_density_on_grid           :     1        0.01s   0.000%  ------ ||
|| basis_extract_function_from_box      :   389        0.02s   0.000%  ------ ||
|| paw_dij_hartree                      :   899        0.03s   0.000%  ------ ||
|| ngwfs_initialise_from_radial         :     2        0.04s   0.000%  ------ ||
|| ewald_calculate_energy               :     1        0.12s   0.001%  ------ ||
|| density_init_guess_real              :     1        0.30s   0.002%  ------ ||
|| paw_dataset_init                     :     3        0.33s   0.002%  ------ ||
|| paw_tcore_hartree_on_grid            :     1        0.35s   0.002%  ------ ||
|| pseudo_make_structure_factor         :     1        0.51s   0.003%  ------ ||
|| sparse_init                          :     1        0.96s   0.006%  ------ ||
|| dense_normal_eigensolve              :     1        1.04s   0.007%  ------ ||
|| restart_kernel_write                 :    15        2.13s   0.014%  ------ ||
|| paw_species_calc_proj_prec_mat       :     1        2.18s   0.014%  ------ ||
|| sparse_embed_hotelling_invert_embed  :    27        5.10s   0.033%  ------ ||
|| sw_init                              :     1        7.55s   0.048%  ------ ||
|| fourier_apply_box_pair               :   973       11.10s   0.071%  2.315k ||
|| augmentation_screen_dij              :   672       13.00s   0.083%  ------ ||
|| ngwf_gradient_coeffs                 :    14       13.39s   0.086%  ------ ||
|| projectors_init_fftbox_recip         :    57       21.55s   0.138%  ------ ||
|| basis_copy_function_to_box           : 25423       33.46s   0.215%  ------ ||
|| hartree_on_grid                      :   667       34.81s   0.223%  ------ ||
|| integrals_kinetic                    :    27       35.15s   0.225%  ------ ||
|| projectors_func_ovlp_box             :    28       39.49s   0.253%  ------ ||
|| paw_dij_xc                           :   899       45.62s   0.292%  ------ ||
|| function_ops_brappd_ketppd           :    56       48.25s   0.309%  ------ ||
|| hamiltonian_energy_components        :     3       70.14s   0.450%  ------ ||
|| sparse_trace                         : 16760       94.54s   0.606%  ------ ||
|| aug_nonlocal_mat                     :   885      111.92s   0.718%  ------ ||
|| augmentation_density_on_grid         :   667      112.57s   0.722%  ------ ||
|| eigenstates_pdos                     :     1      118.38s   0.759%  ------ ||
|| fourier_apply_cell_forward           :  5995      119.12s   0.764% 175.165 ||
|| fourier_apply_cell_backward          :  5996      127.68s   0.819% 163.455 ||
|| basis_dot_function_with_box          : 5.509M     151.04s   0.968%  ------ ||
|| restart_ngwfs_tightbox_output        :    13      186.60s   1.196%  ------ ||
|| eigenstates_calculate                :     1      247.61s   1.587%  ------ ||
|| xc_energy_potential                  :   666      249.75s   1.601%  ------ ||
|| sparse_product                       : 14509      375.10s   2.405%  ------ ||
|| dense_eigensolve                     :  1272      421.64s   2.703%  ------ ||
|| integrals_locpot_mat_els_batch       :   451      534.59s   3.427%  ------ ||
|| basis_add_function_to_box            : 16.59M     536.41s   3.439%  ------ ||
|| projectors_gradient_batch            :    14      624.60s   4.004%  ------ ||
|| cell_grid_deposit_box_real           : 48113      666.83s   4.275%  ------ ||
|| cell_grid_extract_box_real           : 14404      719.81s   4.615%  ------ ||
|| projectors_grad_precond_batch        :    14      868.15s   5.566%  ------ ||
|| density_fftbox_deposit_to_cell       : 21344     1211.36s   7.766%  ------ ||
|| density_batch_row_sums               :   667     1291.58s   8.280%  ------ ||
|| edft_diag_ngwf_ham                   :  1270     1546.03s   9.912%  ------ ||
|| potential_apply_to_ngwf_batch        :   451     1563.25s  10.022%  ------ ||
|| ngwf_gradient_build_batch            :    14     1651.54s  10.588%  ------ ||
|| fourier_apply_box                    : 80838     1756.94s  11.264%  3.993k ||
|| ngwf_gradient_batch                  :    14     1788.78s  11.468%  ------ ||
|| properties_calculate                 :     1     1792.39s  11.491%  ------ ||
|| ngwf_gradient_lnv                    :    14     1811.64s  11.615%  ------ ||
|| density_fftbox_interpolate_multiply  : 21344     1996.24s  12.798%  ------ ||
|| integrals_locpot_dbl_grid            :   451     2114.45s  13.556%  ------ ||
|| edft_apply_smearing_operator         :   635     2588.63s  16.596%  ------ ||
|| density_batch_interp_deposit         :   667     3918.75s  25.123%  ------ ||
|| density_on_dbl_grid                  :   667     5319.97s  34.107%  ------ ||
|| hamiltonian_lhxc_calculate           :   662     5881.44s  37.706%  ------ ||
|| edft_calculate                       :    14    10808.69s  69.295%  ------ ||
|| ngwf_cg_optimise                     :     1    13785.85s  88.382%  ------ ||
|| total_time                           :     1    15598.07s 100.000%  ------ ||
================================================================================
Overhead of generating timer report: 
- 0 ms averaging over threads,
- 25 ms ensuring consistency across MPI ranks,
- 0 ms printing in order.

Job completed: 03-10-2020 12:34 (+0100)

