 +---------------------------------------------------------------+
 |                                                               |
 |        ####### #     # ####### ####### ####### ######         |
 |        #     # ##    # #          #    #       #     #        |
 |        #     # # #   # #          #    #       #     #        |
 |        #     # #  #  # #####      #    #####   ######         |
 |        #     # #   # # #          #    #       #              |
 |        #     # #    ## #          #    #       #              |
 |        ####### #     # #######    #    ####### #              |
 |                                                               |
 |        Linear-Scaling Ab Initio Total Energy Program          |
 |                                                               |
 |          Release for academic collaborators of ODG            |
 |                                             Version 5.3.2.12  |
 |                                                               |
 +---------------------------------------------------------------+
 |                                                               |
 |  Authors:                                                     |
 |  Jacek Dziedzic, Peter D. Haynes, Nicholas D. M. Hine,        |
 |  Arash. A. Mostofi, Mike C. Payne and Chris-Kriton Skylaris   |
 |                                                               |
 |  Contributors:                                                |
 |  J. Aarons, L. Andrinopoulos, P. W. Avraam, R. A. Bell,       |
 |  A. Bhandari, G. A. Bramley, R. J. Charlton, S. J. Clark,     |
 |  R. J. Clements, G. C. Constantinescu, F. Corsetti,           |
 |  N. Corsini, O. Dieguez, S. M. M. Dubois, K. K. B. Duff,      |
 |  J. M. Escartin, A. Greco, H. Helal, Q. O. Hill, L. P. Lee,   |
 |  J.-H. Li, E. B. Linscott, G. Moynihan, D. D. O`Regan,        |
 |  O. K. Okan, M. J. S. Phipps, C. J. Pickard,                  |
 |  J. C. A. Prentice, M. I. J. Probert, L. E. Ratcliff,         |
 |  M. Robinson, A. Ruiz Serrano, J. S. Spencer, E. W. Tait,     |
 |  G. Teobaldi, D. Turban, V. Vitale, K. A. Wilkinson,          |
 |  C. Weber, J. C. Womack, N. Yeung and T. J. Zuehlsdorff       |
 |                                                               |
 |                                   Copyright (c) 2004-2020     |
 |                                                               |
 |  Please cite:                                                 |
 |  "Introducing ONETEP: Linear-scaling density functional       |
 |   simulations on parallel computers".                         |
 |   C.-K. Skylaris, P. D. Haynes, A. A. Mostofi, M. C. Payne.   |
 |   J. Chem. Phys. 122 084119 (2005).                           |
 |                                                               |
 |          in all publications arising from your use of ONETEP. |
 |                                                               |
 +---------------------------------------------------------------+
 |                                                               |
 |   ONETEP is based on developments described in the following  |
 |   publications:                                               |
 |                                                               |
 |  "Nonorthogonal generalized Wannier function pseudopotential  |
 |   plane-wave method".                                         |
 |   C.-K. Skylaris, A. A. Mostofi, P. D. Haynes, O. Dieguez,    |
 |   M. C. Payne.                                                |
 |   Phys. Rev. B 66 035119 (2002).                              |
 |                                                               |
 |  "Preconditioned iterative minimization for linear-scaling    |
 |   electronic structure calculations".                         |
 |   A. A. Mostofi, P. D. Haynes, C.-K. Skylaris, M. C. Payne.   |
 |   J. Chem. Phys. 119(17), pp.8842-8848 (2003).                |
 |                                                               |
 |  "Total-energy calculations on a real space grid with         |
 |   localized functions and a plane-wave basis".                |
 |   A. A. Mostofi, C.-K. Skylaris, P. D. Haynes, M. C. Payne.   |
 |   Comput. Phys. Commun. 147, pp.788-802 (2002).               |
 |                                                               |
 |  "Accurate kinetic energy evaluation in electronic structure  |
 |   calculations with localized functions on real space grids"  |
 |   C.-K. Skylaris, A. A. Mostofi, P. D. Haynes, C. J. Pickard, |
 |   M. C. Payne.                                                |
 |   Comput. Phys. Commun. 140, pp.315-322 (2001).               |
 |                                                               |
 |  "Accurate ionic forces and geometry optimization in linear-  |
 |   scaling density-functional theory with local orbitals"      |
 |   N. D. M. Hine, M. Robinson, P. D. Haynes, C.-K. Skylaris,   |
 |   M. C. Payne, and A. A. Mostofi.                             |
 |   Phys. Rev. B 83 195102 (2011).                              |
 |                                                               |
 +---------------------------------------------------------------+

Job started: 12-09-2020 03:33 (+0100)
 
Reading parameters from file "22/592nano.dat" ...... done

If your calculation crashes here, before "Checking processes and threads..."
is displayed, then your stack size is insufficient.
If so, use "ulimit -s unlimited" at runtime.
You can disable this check with "check_stack_size F".

Checking processes and threads...
   Determining the default number of threads...
      No default threads set at compilation time: defaulting to 1.
      OpenMP library call suggests 4 threads.
      Hybrid MPI-OpenMP compilation detected.
      Number of MPI processes > 1.
      OMP_NUM_THREADS environment variable present and
      its value matches the one obtained from the OpenMP library call.
      Using this value as default.
      Default threads: 4
      Default applies to threads_max and threads_num_fftboxes.
      Settings in the input file override this default.
   ... done

   Running with 160 MPI processes.
   There are 10 MPI processes running on the same node as the root process.
   Each MPI process is using: 
               1 threads for simulation cell FFTs.
               1 threads for parallel FFT box operations.
               4 threads for loops over batched FFT box operations.
               4 threads in other parallel regions.
... done

Basic input checks...
Resetting ngwf_cg_rotate to TRUE for EDFT calculations
... done

Reading geometry and species blocks from file "22/592nano.dat" ...    
  Number of PPD points along a3 set to 1.  This is 
  the default value, it may have been provided also in the input file.
... done
 Writing xyz coordinates to file "22/592nano.xyz" ... done


--------------------------------------------------------------------------------
---------------------------------- INPUT FILE ----------------------------------
--------------------------------------------------------------------------------

task : singlepoint                                                              
do_properties : true                                                            
ddec_classical_hirshfeld T                                                      
dx_format T                                                                     
edft T                                                                          
edft_spin_fix 3                                                                 
output_detail VERBOSE                                                           
write_xyz T                                                                     
dispersion 4                                                                    
xc_functional PBE                                                               
cutoff_energy 830 eV                                                            
paw T                                                                           
geom_disp_tol 0.015 bohr                                                        
geom_energy_tol 1.5E-6 hartree                                                  
geom_force_tol 0.003 "ha/bohr"                                                  
EDFT_MAXIT 30                                                                   
pdos_max_l = 2                                                                  
dos_smear  0.1 eV                                                               
popn_calculate T                                                                
PDOS_PSEUDOATOMIC T                                                             
PDOS_REDUCE_SWS F                                                               
PDOS_CONSTRUCT_BASIS F                                                          
PDOS_LOWDIN T                                                                   
PDOS_ORTH_ATOM_BLOCKS F                                                         
PDOS_LCAO_OPTIMIZE F                                                            
pdos_optados_output T                                                           
homo_plot 0                                                                     
lumo_plot 0                                                                     
homo_dens_plot -1                                                               
lumo_dens_plot -1                                                               
%BLOCK SPECIES                                                                  
C C 6 4 9.0                                                                     
H H 1 1 9.0                                                                     
Li Li 3 5 9.0                                                                   
%ENDBLOCK SPECIES                                                               
%BLOCK SPECIES_POT                                                              
C "~/pp/paw/c_pbe_abinit.paw"                                                   
H "~/pp/paw/h_pbe_abinit.paw"                                                   
Li "~/pp/paw/li_pbe_abinit.paw"                                                 
%ENDBLOCK SPECIES_POT                                                           
%BLOCK SPECIES_ATOMIC_SET                                                       
C "SOLVE conf=2s2 2p2"                                                          
H "SOLVE conf=1s1"                                                              
Li "SOLVE conf=1s2 2s1 2p0"                                                     
%ENDBLOCK SPECIES_ATOMIC_SET                                                    
%BLOCK SPECIES_LDOS_GROUPS                                                      
C                                                                               
H                                                                               
Li                                                                              
%ENDBLOCK SPECIES_LDOS_GROUPS                                                   
%BLOCK LATTICE_CART                                                             
94.486315650000      0.000000000000       0.000000000000                        
0.000000000000       94.486315650000      0.000000000000                        
0.000000000000       0.000000000000       94.486315650000                       
%ENDBLOCK LATTICE_CART                                                          
%BLOCK POSITIONS_ABS                                                            
C 45.455229 50.691928 30.758653                                                 
C 45.438142 50.600677 36.825425                                                 
C 46.792091 53.031131 30.727308                                                 
C 48.131811 50.594590 36.821563                                                 
C 49.510262 48.381534 30.727585                                                 
C 49.474598 48.262366 36.796553                                                 
C 50.844389 50.718294 30.715155                                                 
C 52.169041 48.256264 36.759830                                                 
C 45.435772 55.356715 30.644295                                                 
C 45.456053 55.259490 36.834327                                                 
C 46.777119 57.693355 30.494804                                                 
C 48.148432 55.250975 36.835413                                                 
C 49.488043 53.041214 30.698689                                                 
C 49.486195 52.918835 36.823570                                                 
C 50.828603 55.375602 30.556667                                                 
C 52.182634 52.910154 36.801301                                                 
C 45.390456 50.470666 42.998868                                                 
C 45.380835 50.410616 49.051747                                                 
C 46.737697 52.800705 43.009082                                                 
C 48.077457 50.421065 49.077956                                                 
C 49.435002 48.137969 42.973228                                                 
C 49.433971 48.090764 49.121596                                                 
C 50.781642 50.468138 42.980469                                                 
C 52.132472 48.104948 49.252303                                                 
C 45.388045 55.132681 43.018518                                                 
C 45.360865 55.079635 49.147467                                                 
C 46.741064 57.464775 43.041203                                                 
C 48.055107 55.091369 49.188179                                                 
C 49.434554 52.796883 43.009027                                                 
C 49.411073 52.766277 49.146406                                                 
C 50.787414 55.129145 43.019218                                                 
C 52.105073 52.782771 49.281071                                                 
C 57.599762 48.416612 30.566114                                                 
C 57.553189 48.236432 36.640555                                                 
C 58.933452 50.742478 30.481734                                                 
C 60.273811 48.232710 36.564971                                                 
C 57.519790 48.145935 42.745570                                                 
C 57.501790 48.144837 49.708403                                                 
C 58.874994 50.466551 42.697656                                                 
C 60.233368 48.164396 49.920570                                                 
C 53.541445 50.728199 30.647652                                                 
C 53.520969 50.579501 36.758736                                                 
C 54.877885 53.056637 30.521603                                                 
C 56.218308 50.569585 36.704894                                                 
C 53.481094 50.468938 42.933309                                                 
C 53.459051 50.452741 49.347401                                                 
C 54.826532 52.796090 42.931628                                                 
C 56.138823 50.477593 49.605900                                                 
C 57.628486 43.774175 30.509496                                                 
C 57.546672 43.583593 36.607665                                                 
C 58.954336 46.092291 30.532890                                                 
C 60.261443 43.595176 36.527193                                                 
C 57.530948 43.487375 42.704486                                                 
C 57.536021 43.473182 49.891514                                                 
C 58.874388 45.813648 42.655579                                                 
C 60.240938 43.509401 50.170246                                                 
C 53.566404 46.076075 30.616218                                                 
C 53.511125 45.926762 36.716495                                                 
C 54.899776 48.406459 30.629868                                                 
C 56.208555 45.920008 36.653804                                                 
C 53.476356 45.808314 42.872812                                                 
C 53.487571 45.785180 49.403182                                                 
C 54.828528 48.140979 42.862082                                                 
C 56.180760 45.812149 49.636927                                                 
C 57.561192 57.684332 29.985552                                                 
C 57.592118 57.542230 36.932522                                                 
C 58.889455 60.037664 29.627672                                                 
C 60.325052 57.501965 36.941479                                                 
C 57.536452 57.459141 42.951800                                                 
C 57.469639 57.477621 49.786847                                                 
C 58.880918 59.804798 43.007138                                                 
C 60.172554 57.476907 49.868934                                                 
C 45.414561 64.676948 29.956901                                                 
C 45.511825 64.592824 36.867345                                                 
C 46.771990 67.013678 29.840811                                                 
C 48.191047 64.589498 36.910048                                                 
C 49.449966 62.341580 29.962274                                                 
C 49.539859 62.238670 36.927984                                                 
C 50.808613 64.701804 29.638756                                                 
C 52.238268 62.228757 36.986479                                                 
C 45.403204 64.462466 42.921331                                                 
C 45.332158 64.389961 50.007768                                                 
C 46.781291 66.799394 42.758191                                                 
C 48.017554 64.404884 50.041206                                                 
C 49.442477 62.125779 42.995480                                                 
C 49.373875 62.080223 49.811177                                                 
C 50.817506 64.487559 42.942294                                                 
C 52.057597 62.100191 49.956489                                                 
C 53.512758 60.019829 30.039943                                                 
C 53.561992 59.889953 36.934280                                                 
C 54.861322 62.380911 29.777348                                                 
C 56.264053 59.875723 37.002457                                                 
C 53.490920 59.780799 42.930709                                                 
C 53.415554 59.779520 49.778190                                                 
C 54.857643 62.147033 42.788889                                                 
C 56.125529 59.787669 49.890373                                                 
C 57.578008 53.056722 30.420926                                                 
C 57.571087 52.890251 36.729100                                                 
C 58.915306 55.380292 30.183063                                                 
C 60.298866 52.871529 36.681344                                                 
C 57.527196 52.797430 42.815934                                                 
C 57.470681 52.821202 49.766559                                                 
C 58.880445 55.145814 42.851615                                                 
C 60.195713 52.828176 50.063228                                                 
C 45.424764 60.011428 30.327349                                                 
C 45.480791 59.918911 36.850314                                                 
C 46.767063 62.345706 30.093898                                                 
C 48.175550 59.908659 36.860187                                                 
C 49.475076 57.698215 30.435492                                                 
C 49.509316 57.577541 36.849402                                                 
C 50.816931 60.021995 30.163428                                                 
C 52.203939 57.567289 36.863799                                                 
C 45.398030 59.793012 43.038820                                                 
C 45.343265 59.736928 49.479388                                                 
C 46.759694 62.124260 43.009496                                                 
C 48.039639 59.753980 49.523177                                                 
C 49.438222 57.461524 43.036409                                                 
C 49.394424 57.432001 49.365538                                                 
C 50.789969 59.792696 43.002380                                                 
C 52.080975 57.443392 49.487899                                                 
C 53.520777 55.377590 30.443641                                                 
C 53.538455 55.229908 36.825304                                                 
C 54.857126 57.705126 30.171129                                                 
C 56.235541 55.212200 36.816141                                                 
C 53.479037 55.126432 42.986986                                                 
C 53.436670 55.118212 49.439284                                                 
C 54.834663 57.461730 42.965337                                                 
C 56.130842 55.135953 49.648573                                                 
H 27.354020 41.219357 30.091174                                                 
H 28.266359 39.551933 36.300090                                                 
H 27.202201 41.159593 42.387066                                                 
H 28.215490 39.293586 50.062832                                                 
H 41.902874 30.273763 29.310812                                                 
C 42.932732 32.063607 29.404316                                                 
H 44.446157 30.184503 37.162709                                                 
H 41.722101 30.018744 42.835186                                                 
C 42.757643 31.809232 42.851319                                                 
H 44.436114 29.993321 49.810502                                                 
H 29.699501 37.171708 29.737838                                                 
C 30.711539 38.974068 29.799826                                                 
H 32.282661 37.202544 36.796888                                                 
H 33.761510 34.872242 29.269496                                                 
C 34.783937 36.660916 29.437315                                                 
H 29.515416 37.090961 42.480089                                                 
C 30.552508 38.878508 42.545834                                                 
H 32.279122 36.958268 50.179522                                                 
H 33.552466 34.707771 42.554059                                                 
C 34.598871 36.487794 42.653483                                                 
H 37.838608 32.575630 29.137282                                                 
C 38.853913 34.368039 29.315502                                                 
H 40.387769 32.512314 36.995717                                                 
H 37.651573 32.344506 42.480076                                                 
C 38.673942 34.134150 42.636564                                                 
H 40.396986 32.319895 50.190019                                                 
H 46.592281 30.296419 29.495744                                                 
H 46.401675 30.052254 43.057581                                                 
H 25.857023 48.265501 37.327275                                                 
C 27.918799 48.275535 37.158795                                                 
H 25.832169 48.017582 50.411962                                                 
C 27.892799 48.030742 50.261702                                                 
H 25.888659 43.572843 36.581730                                                 
H 27.319554 45.875487 29.619894                                                 
C 27.957364 43.581840 36.675073                                                 
H 25.854977 43.355016 50.222389                                                 
H 27.196378 45.832667 42.520118                                                 
C 27.920442 43.351295 50.163078                                                 
H 25.923512 57.698049 37.156948                                                 
H 27.242373 59.950681 29.675306                                                 
C 27.990817 57.691773 37.109408                                                 
H 25.830750 57.367503 49.974989                                                 
H 27.184098 59.891576 42.625647                                                 
C 27.894868 57.389366 50.079916                                                 
H 25.869994 53.028713 37.202655                                                 
H 27.257322 55.265236 29.574641                                                 
C 27.934180 52.990447 37.098794                                                 
H 25.811794 52.689223 50.283068                                                 
H 27.170707 55.156351 42.727506                                                 
C 27.875780 52.695271 50.181471                                                 
C 29.416660 41.216206 29.962579                                                 
C 29.273435 41.344328 36.522758                                                 
C 30.693484 43.583270 29.943059                                                 
C 31.958246 41.275268 36.676706                                                 
C 33.403824 38.930756 29.670203                                                 
C 33.318061 38.993655 36.765692                                                 
C 34.736848 41.293609 29.916688                                                 
C 35.980739 38.931749 36.950524                                                 
C 29.390251 45.904021 29.794888                                                 
C 29.230316 45.941604 36.948518                                                 
C 30.666798 48.240809 29.763572                                                 
C 31.942870 45.941888 36.823249                                                 
C 33.386440 43.602641 30.026961                                                 
C 33.293429 43.626958 36.740699                                                 
C 34.720946 45.954926 30.164294                                                 
C 35.996735 43.620230 36.754065                                                 
C 29.266357 41.137958 42.505112                                                 
C 29.238181 41.090237 50.071417                                                 
C 30.556716 43.510602 42.553533                                                 
C 31.932999 41.033752 50.011686                                                 
C 33.244133 38.791030 42.609325                                                 
C 33.312616 38.746818 50.056997                                                 
C 34.593896 41.154195 42.738884                                                 
C 35.973637 38.709839 50.101604                                                 
C 29.256382 45.832077 42.696679                                                 
C 29.195563 45.732467 50.168809                                                 
C 30.538495 48.161585 42.804255                                                 
C 31.916670 45.729538 49.967622                                                 
C 33.265638 43.487849 42.739129                                                 
C 33.267878 43.402788 49.903949                                                 
C 34.609159 45.834014 42.872673                                                 
C 35.980603 43.396247 49.719373                                                 
C 41.499346 39.028019 29.921819                                                 
C 41.395693 38.949509 36.817567                                                 
C 42.824364 41.352138 30.240514                                                 
C 44.078371 38.948938 36.828244                                                 
C 41.348542 38.802323 42.928666                                                 
C 41.403709 38.746963 49.793298                                                 
C 42.693489 41.143622 43.000808                                                 
C 44.080493 38.746012 49.660066                                                 
C 37.448297 41.311722 30.018250                                                 
C 37.343877 41.299099 36.821034                                                 
C 38.773630 43.648833 30.331193                                                 
C 40.043261 41.281860 36.791692                                                 
C 37.305972 41.147939 42.873922                                                 
C 37.331706 41.080786 49.820117                                                 
C 38.653979 43.487361 42.953875                                                 
C 40.028123 41.070497 49.640484                                                 
C 41.498344 34.356013 29.433843                                                 
C 41.413819 34.304369 36.890173                                                 
C 42.864550 36.708841 29.694796                                                 
C 44.069591 34.270435 37.049419                                                 
C 41.346797 34.101666 42.726850                                                 
C 41.423493 34.111167 50.049830                                                 
C 42.709262 36.453519 42.871324                                                 
C 44.083135 34.073765 49.914499                                                 
C 37.463968 36.627631 29.449845                                                 
C 37.367324 36.640093 36.877868                                                 
C 38.812726 39.000646 29.784666                                                 
C 40.025409 36.587348 36.843485                                                 
C 37.277182 36.418112 42.687818                                                 
C 37.365214 36.425362 49.977400                                                 
C 38.650340 38.800393 42.861127                                                 
C 40.050363 36.386890 50.097600                                                 
C 41.428691 48.332338 30.677897                                                 
C 41.391467 48.279244 36.776700                                                 
C 42.759978 50.676243 30.728648                                                 
C 44.085434 48.272934 36.806008                                                 
C 41.349549 48.147022 43.002835                                                 
C 41.345159 48.064813 49.158096                                                 
C 42.693952 50.477836 42.999452                                                 
C 44.042385 48.069878 49.086036                                                 
C 29.321353 55.267947 29.724352                                                 
C 29.255853 55.315860 37.108669                                                 
C 30.606899 57.610765 29.768912                                                 
C 31.977161 55.322091 37.008620                                                 
C 33.347798 52.961764 30.019590                                                 
C 33.315736 52.958664 36.902299                                                 
C 34.674425 55.294753 30.117666                                                 
C 36.015247 52.955147 36.802621                                                 
C 29.237513 55.169691 42.831333                                                 
C 29.178793 55.020788 50.126904                                                 
C 30.524625 57.503112 42.844414                                                 
C 31.897466 55.038901 49.950001                                                 
C 33.268724 52.838655 42.883657                                                 
C 33.250618 52.696652 49.740552                                                 
C 34.603041 55.163213 42.979031                                                 
C 35.938958 52.710965 49.427269                                                 
C 37.374453 50.643886 30.475095                                                 
C 37.349764 50.618929 36.758890                                                 
C 38.709235 52.989024 30.532834                                                 
C 40.049324 50.612516 36.769418                                                 
C 37.304838 50.490132 42.984768                                                 
C 37.290461 50.386287 49.322360                                                 
C 38.648418 52.821486 43.009610                                                 
C 39.988368 50.393440 49.163591                                                 
C 41.461163 43.666899 30.432038                                                 
C 41.387854 43.615552 36.766378                                                 
C 42.789900 46.009522 30.620081                                                 
C 44.081716 43.611058 36.779739                                                 
C 41.347835 43.479506 42.995401                                                 
C 41.364122 43.398327 49.375313                                                 
C 42.697721 45.813486 43.006522                                                 
C 44.063493 43.401303 49.279685                                                 
C 29.337840 50.587972 29.862215                                                 
C 29.203553 50.628795 37.091034                                                 
C 30.618773 52.950023 29.720416                                                 
C 31.951806 50.623395 36.923973                                                 
C 33.379436 48.265645 30.045643                                                 
C 33.296124 48.289535 36.826443                                                 
C 34.691534 50.624815 30.202775                                                 
C 35.993922 48.289561 36.752619                                                 
C 29.249444 50.492456 42.767198                                                 
C 29.171184 50.352065 50.163318                                                 
C 30.531779 52.836042 42.711839                                                 
C 31.911041 50.364908 49.890628                                                 
C 33.268403 48.155039 42.876047                                                 
C 33.267885 48.054854 49.761551                                                 
C 34.608845 50.494801 42.930399                                                 
C 35.954692 48.055705 49.498763                                                 
C 37.411812 45.972035 30.394323                                                 
C 37.346564 45.955826 36.735865                                                 
C 38.732785 48.312868 30.559164                                                 
C 40.037900 45.948943 36.751747                                                 
C 37.308961 45.824689 42.947126                                                 
C 37.315285 45.727281 49.486998                                                 
C 38.652441 48.152404 42.987526                                                 
C 40.006089 45.728941 49.311842                                                 
C 45.547283 32.079092 29.509145                                                 
C 45.492881 31.965311 37.071927                                                 
C 46.949991 34.388070 29.624799                                                 
C 48.089198 31.955151 37.066993                                                 
H 49.122846 30.165203 37.139956                                                 
H 50.647931 32.660130 29.490156                                                 
C 45.553422 36.724586 29.774606                                                 
C 45.442997 36.611493 36.922201                                                 
C 46.892103 39.066041 30.035479                                                 
C 48.127662 36.601932 36.946777                                                 
C 49.610369 34.444201 29.626683                                                 
C 49.509035 34.251512 37.040442                                                 
C 50.978593 36.745942 29.681232                                                 
C 52.174350 34.287202 37.023508                                                 
C 45.349419 31.829907 42.974733                                                 
C 45.480975 31.775872 49.890161                                                 
C 46.743571 34.128418 42.934341                                                 
C 48.075149 31.765916 49.971598                                                 
H 49.118910 29.980891 49.962273                                                 
H 50.430404 32.374122 42.746403                                                 
C 45.388359 36.461641 42.936307                                                 
C 45.434554 36.409071 49.800070                                                 
C 46.738203 38.802966 42.938861                                                 
C 48.111685 36.410319 49.863808                                                 
C 49.403425 34.168310 42.828137                                                 
C 49.479980 34.063778 50.063736                                                 
C 50.778165 36.443079 42.707207                                                 
C 52.153421 34.104141 50.154539                                                 
H 53.201097 32.493307 37.070289                                                 
H 53.181496 32.317983 50.300262                                                 
C 57.652246 39.158834 30.315323                                                 
C 57.558735 38.910034 36.659373                                                 
C 58.983457 41.424416 30.437842                                                 
C 60.264267 38.976907 36.551275                                                 
C 57.506774 38.839199 42.686423                                                 
C 57.568289 38.782927 50.188921                                                 
C 58.875456 41.128179 42.684475                                                 
C 60.258312 38.877832 50.295694                                                 
C 45.483742 46.027074 30.653371                                                 
C 45.431548 45.942372 36.794846                                                 
C 46.814770 48.365881 30.738497                                                 
C 48.124225 45.937506 36.789494                                                 
C 49.542263 43.724289 30.513223                                                 
C 49.472786 43.604415 36.776023                                                 
C 50.872776 46.059713 30.644542                                                 
C 52.165834 43.601129 36.740986                                                 
C 45.391922 45.807147 42.998822                                                 
C 45.401348 45.741045 49.136027                                                 
C 46.740429 48.137957 42.993264                                                 
C 48.098608 45.751261 49.148758                                                 
C 49.435126 43.472913 42.936015                                                 
C 49.459962 43.419896 49.297748                                                 
C 50.784470 45.804782 42.935711                                                 
C 52.152002 43.437444 49.426260                                                 
C 53.610712 41.431803 30.340805                                                 
C 53.522722 41.271632 36.743021                                                 
C 54.931818 43.752775 30.510631                                                 
C 56.214387 41.270016 36.663943                                                 
C 53.479130 41.153900 42.769056                                                 
C 53.506232 41.113566 49.696623                                                 
C 54.820310 43.476014 42.794124                                                 
C 56.215157 41.135870 49.930845                                                 
H 57.268780 34.856524 36.827020                                                 
H 58.696624 37.373835 30.265919                                                 
H 57.267008 34.698342 50.354945                                                 
H 58.544657 37.054246 42.567568                                                 
C 45.522896 41.373146 30.289905                                                 
C 45.429870 41.282280 36.796445                                                 
C 46.849158 43.704999 30.508826                                                 
C 48.125435 41.279367 36.802497                                                 
C 49.581469 39.089026 30.005607                                                 
C 49.483601 38.946677 36.874693                                                 
C 50.913752 41.409615 30.297715                                                 
C 52.185227 38.944258 36.862650                                                 
C 45.388475 41.142878 42.987282                                                 
C 45.421161 41.080131 49.425137                                                 
C 46.736912 43.470108 42.982409                                                 
C 48.117445 41.086150 49.430784                                                 
C 49.416399 38.807191 42.843189                                                 
C 49.467888 38.759144 49.690932                                                 
C 50.782421 41.140594 42.865595                                                 
C 52.166425 38.768252 49.816571                                                 
C 53.639331 36.811686 29.893148                                                 
C 53.563108 36.578818 36.933041                                                 
C 54.986850 39.091323 30.186028                                                 
C 56.226717 36.643947 36.800522                                                 
C 53.464011 36.496014 42.857634                                                 
C 53.543648 36.393525 50.100722                                                 
C 54.846848 38.786004 42.643062                                                 
C 56.220134 36.472518 50.193411                                                 
H 61.281410 37.175628 36.522770                                                 
H 62.715341 39.703247 30.440357                                                 
H 61.297450 37.093882 50.407998                                                 
H 62.589718 39.401484 42.650701                                                 
H 28.297222 61.733274 37.249624                                                 
H 28.162556 61.445234 50.144275                                                 
C 29.309523 59.971419 29.687638                                                 
C 29.310388 59.934323 37.143959                                                 
C 30.603478 62.248940 29.624215                                                 
C 32.012804 60.000391 37.164962                                                 
C 33.323361 57.639729 29.909525                                                 
C 33.339835 57.636218 36.999475                                                 
C 34.660137 59.972915 29.848470                                                 
C 36.044153 57.633792 36.898870                                                 
H 29.562133 64.032653 29.573432                                                 
H 32.358589 64.070748 37.239497                                                 
C 33.308843 62.342008 29.639817                                                 
C 33.383448 62.284167 37.063381                                                 
C 34.649982 64.623080 29.553214                                                 
C 36.047177 62.329319 36.992635                                                 
C 29.248422 59.884085 42.732040                                                 
C 29.190392 59.642741 50.131561                                                 
C 30.557845 62.155557 42.752451                                                 
C 31.893721 59.713045 50.147712                                                 
C 33.249679 57.518785 42.938946                                                 
C 33.233788 57.359305 49.900564                                                 
C 34.596052 59.842815 42.955148                                                 
C 35.929340 57.377562 49.609254                                                 
H 29.529946 63.951359 42.699263                                                 
H 32.193440 63.792674 49.924411                                                 
C 33.261282 62.227501 42.871395                                                 
C 33.238239 62.005209 49.925402                                                 
C 34.627566 64.497503 42.918812                                                 
C 35.895069 62.057632 49.831561                                                 
C 41.388724 57.671403 30.431903                                                 
C 41.424153 57.606070 36.839291                                                 
C 42.729884 60.000872 30.298061                                                 
C 44.119712 57.598370 36.837971                                                 
C 41.345231 57.476700 43.033231                                                 
C 41.307902 57.396642 49.286322                                                 
C 42.699375 59.797765 43.035264                                                 
C 44.003847 57.407656 49.275628                                                 
C 37.355004 59.980257 30.028754                                                 
C 37.394444 59.953248 36.924404                                                 
C 38.684070 62.315805 29.886920                                                 
C 40.089329 59.944470 36.895744                                                 
C 37.302387 59.821637 43.023450                                                 
C 37.257684 59.698490 49.642305                                                 
C 38.649252 62.144581 42.957688                                                 
C 39.952043 59.716409 49.518448                                                 
C 41.404163 53.003884 30.663329                                                 
C 41.403851 52.939089 36.798975                                                 
C 42.741599 55.343407 30.611380                                                 
C 44.097949 52.934109 36.824329                                                 
C 41.346629 52.812225 43.002696                                                 
C 41.325055 52.730239 49.106866                                                 
C 42.695232 55.139300 43.012951                                                 
C 44.022056 52.741403 49.074256                                                 
C 37.361563 55.314301 30.349411                                                 
C 37.375498 55.287055 36.822582                                                 
C 38.697787 57.658937 30.296538                                                 
C 40.064947 55.278549 36.809167                                                 
C 37.300206 55.155511 43.029968                                                 
C 37.276908 55.047820 49.366291                                                 
C 38.648853 57.487800 43.048511                                                 
C 39.965283 55.059567 49.200408                                                 
C 41.362144 67.017677 29.725959                                                 
C 41.511690 66.913279 36.951431                                                 
C 42.773273 69.322138 29.764557                                                 
C 44.160372 66.934183 36.843336                                                 
C 41.351252 66.824970 42.798372                                                 
C 41.283994 66.666258 50.261301                                                 
C 42.770996 69.117734 42.763482                                                 
C 43.941119 66.721978 50.232503                                                 
H 37.667971 68.765835 29.516783                                                 
H 40.493394 68.714309 37.011636                                                 
H 37.671913 68.592331 42.638155                                                 
H 40.243142 68.438964 50.487177                                                 
C 41.377735 62.326917 30.029305                                                 
C 41.463714 62.268483 36.952160                                                 
C 42.733675 64.674421 29.904267                                                 
C 44.145269 62.262486 36.883168                                                 
C 41.348843 62.133806 42.982448                                                 
C 41.304171 62.036387 49.775269                                                 
C 42.720577 64.475942 42.919348                                                 
C 43.984284 62.050726 49.734581                                                 
H 33.608901 66.403968 29.414740                                                 
H 33.619901 66.303918 42.922925                                                 
C 37.308077 64.682229 29.637598                                                 
C 37.438084 64.601679 37.034523                                                 
C 38.697940 66.976015 29.619184                                                 
C 40.108597 64.638080 37.104025                                                 
C 37.281547 64.523008 42.861990                                                 
C 37.260764 64.333595 49.972144                                                 
C 38.690792 66.801201 42.780687                                                 
C 39.920081 64.378736 50.144474                                                 
C 61.695542 41.502030 30.450851                                                 
C 61.549575 41.212774 36.481025                                                 
C 62.978728 43.739711 30.456700                                                 
H 63.614481 41.233654 36.393549                                                 
C 61.674192 46.116397 30.480244                                                 
C 61.548476 45.884828 36.496905                                                 
C 62.952307 48.415378 30.427485                                                 
H 63.615218 45.881530 36.427886                                                 
H 65.047468 43.765202 30.441476                                                 
C 61.569428 41.197778 42.649860                                                 
C 61.538701 41.141394 50.284628                                                 
C 62.884325 43.455383 42.582098                                                 
H 63.603602 41.166404 50.398763                                                 
C 61.603248 45.837203 42.554157                                                 
C 61.533153 45.838637 50.040993                                                 
C 62.903176 48.141174 42.529207                                                 
H 63.592873 45.846496 50.228959                                                 
H 64.950797 43.454788 42.541123                                                 
C 61.634464 55.369041 30.118176                                                 
C 61.599129 55.197620 36.779222                                                 
C 62.909160 57.742633 29.896288                                                 
H 63.667085 55.189658 36.771687                                                 
H 65.006628 53.086858 30.209325                                                 
C 61.602833 55.134689 42.793823                                                 
C 61.474120 55.171162 49.966687                                                 
C 62.886667 57.505984 42.979134                                                 
H 63.541449 55.183692 50.056739                                                 
H 64.970943 52.822604 42.646835                                                 
C 61.656457 50.748581 30.400383                                                 
C 61.568492 50.544769 36.574483                                                 
C 62.936711 53.077595 30.256423                                                 
H 65.022078 48.423120 30.375626                                                 
C 61.618142 50.465824 42.580895                                                 
C 61.504237 50.498412 50.026974                                                 
C 62.903528 52.816918 42.667865                                                 
H 64.969714 48.133313 42.459872                                                 
H 41.726609 71.104955 29.720638                                                 
H 44.530944 71.012690 36.701946                                                 
H 41.737341 70.906464 42.700704                                                 
H 44.282596 70.806524 50.447632                                                 
C 45.362047 69.315976 29.826240                                                 
C 45.576217 69.229903 36.763873                                                 
H 46.407448 71.099752 29.835393                                                 
C 48.165083 69.236571 36.812054                                                 
C 49.422355 66.982754 29.724988                                                 
C 49.573081 66.934858 36.939488                                                 
H 50.445750 68.778198 29.621123                                                 
C 52.238299 66.889993 37.011164                                                 
H 49.208607 71.021761 36.783401                                                 
C 45.366871 69.106683 42.746424                                                 
C 45.336913 69.030405 50.368758                                                 
H 46.414758 70.886751 42.676254                                                 
C 47.952903 69.051059 50.388056                                                 
C 49.439420 66.766829 42.882854                                                 
C 49.387382 66.758303 50.289737                                                 
H 50.465477 68.557533 42.754807                                                 
C 52.032886 66.742135 50.366908                                                 
H 48.978808 70.842988 50.478692                                                 
H 57.332584 66.307383 37.193353                                                 
H 57.122388 66.213098 50.417753                                                 
H 53.270893 68.681063 37.022351                                                 
H 53.048904 68.534761 50.537189                                                 
C 57.532573 62.318892 29.641663                                                 
C 57.616958 62.244844 37.114932                                                 
H 58.564284 64.101320 29.444113                                                 
C 60.331746 62.146291 37.157549                                                 
C 57.530121 62.081911 42.937339                                                 
C 57.466809 62.147922 50.103713                                                 
H 58.573635 63.868992 42.902530                                                 
C 60.166810 62.089250 50.001689                                                 
C 53.487003 64.655271 29.660440                                                 
C 53.620779 64.595677 37.070678                                                 
C 56.285379 64.525774 37.114763                                                 
C 53.481305 64.436390 42.883180                                                 
C 53.414070 64.474409 50.253915                                                 
C 56.095604 64.424719 50.279245                                                 
C 61.607114 59.972938 29.646772                                                 
C 61.620673 59.883647 37.080842                                                 
H 62.621874 61.766307 29.464258                                                 
H 63.686809 59.863325 37.101942                                                 
H 64.978094 57.745696 29.909694                                                 
H 61.368786 63.932280 37.247999                                                 
C 61.579994 59.736163 43.084218                                                 
C 61.458276 59.850190 49.873917                                                 
H 62.594241 61.534227 43.197499                                                 
H 63.524527 59.839781 49.799970                                                 
H 64.955054 57.494844 43.012287                                                 
H 61.181050 63.890651 50.037831                                                 
H 63.563667 50.511305 50.219522                                                 
H 36.342734 34.638248 50.186513                                                 
H 36.223518 66.112151 50.157790                                                 
H 27.189048 50.484759 42.583230                                                 
H 54.514311 66.224027 42.753311                                                 
H 63.635639 50.535472 36.528149                                                 
H 54.490519 34.707783 42.675611                                                 
H 36.334742 34.852336 36.990937                                                 
H 36.420065 66.395903 37.184123                                                 
H 54.510681 66.443129 29.474824                                                 
H 27.284253 50.564911 29.572601                                                 
H 54.689718 35.033957 29.763155                                                 
Li 59.010283 60.022202 33.552421                                                
Li 30.371276 43.513572 46.521719                                                
Li 44.013858 34.195336 33.085339                                                
Li 46.745856 66.983296 46.709397                                                
Li 60.346882 43.674932 46.181322                                                
Li 31.914545 60.195390 33.242762                                                
Li 51.087494 64.723320 33.505727                                                
Li 39.787693 64.998763 33.246544                                                
Li 60.485289 52.647917 46.200807                                                
Li 30.057348 52.598229 46.557648                                                
Li 35.551055 38.653031 46.224066                                                
Li 55.366515 38.484561 46.521358                                                
Li 35.936157 38.459492 33.114610                                                
Li 50.974198 36.343241 33.509705                                                
Li 40.019421 35.945135 46.243037                                                
Li 50.845734 35.885201 46.537676                                                
Li 54.934296 62.581533 46.629654                                                
Li 39.827855 64.689134 46.315928                                                
Li 30.317378 53.217376 33.575761                                                
Li 28.882985 48.109247 33.320369                                                
Li 31.682877 60.056084 46.290880                                                
Li 61.740120 53.241480 33.494640                                                
%ENDBLOCK POSITIONS_ABS                                                         

--------------------------------------------------------------------------------
-------------------------------- END INPUT FILE --------------------------------
--------------------------------------------------------------------------------


 
<<<<<<<<<<<<<<<<<<<<<<<<<<<<<<<<< Full system >>>>>>>>>>>>>>>>>>>>>>>>>>>>>>>>>>
<<<<<<<<<<<<<<<<<<<<<<<<<<< PAW Dataset information >>>>>>>>>>>>>>>>>>>>>>>>>>>
File: ~/pp/paw/c_pbe_abinit.paw; rc = 1.25 bohr; shape type =  3; rshape = 1.25 bohr;
  Atomic number:  6;  ionic charge:  4.000000
    Partial Wave 1: l = 0
    Partial Wave 2: l = 0
    Partial Wave 3: l = 1
    Partial Wave 4: l = 1
  Core charge supplied for Nonlinear Core Corrections
File: ~/pp/paw/h_pbe_abinit.paw; rc = 0.90 bohr; shape type =  3; rshape = 0.90 bohr;
  Atomic number:  1;  ionic charge:  1.000000
    Partial Wave 1: l = 0
    Partial Wave 2: l = 0
File: ~/pp/paw/li_pbe_abinit.paw; rc = 1.42 bohr; shape type =  3; rshape = 1.42 bohr;
  Atomic number:  3;  ionic charge:  3.000000
    Partial Wave 1: l = 0
    Partial Wave 2: l = 0
    Partial Wave 3: l = 0
    Partial Wave 4: l = 1
    Partial Wave 5: l = 1
<<<<<<<<<<<<<<<<<<<<<<<<<<<<<<<<<<<<<<< >>>>>>>>>>>>>>>>>>>>>>>>>>>>>>>>>>>>>>>

-------------------------- Atom counting information ---------------------------
Symbol    Natoms    Nngwfs    Nprojs
  C        484      1936      3872
  H        108       108       216
  Li        22       110       198
.......   ......    ......    ......
Totals:    614      2154      4286
--------------------------------------------------------------------------------

=============================== PSINC grid sizes ===============================
                      Simulation cell:  189 x 189 x 189
                              FFT-box:  117 x 117 x 117
                                  PPD:    7 x   7 x   1
Grid space d1=  0.499927596032a0 (KE cutoff=  30.39413Eh = 827.06648eV)
Grid space d2=  0.499927596032a0 (KE cutoff=  30.39413Eh = 827.06648eV)
Grid space d3=  0.499927596032a0 (KE cutoff=  30.39413Eh = 827.06648eV)
================================================================================
  
WARNING in cell_grid_distribute:
Average of less than one 23-slab per node, so workload cannot be
equally balanced between nodes.

********************* Fourier parallelisation information **********************
       Coarse grid (whole simulation cell) dimensions:    189   189   189
          Real-space ('12') slabs/node (min max mean):      1     2     1
         Recip-space ('23') slabs/node (min max mean):      0     1     0
********************************************************************************

********************* Fourier parallelisation information **********************
       Double grid (whole simulation cell) dimensions:    378   378   378
          Real-space ('12') slabs/node (min max mean):      2     3     2
         Recip-space ('23') slabs/node (min max mean):      1     2     1
********************************************************************************

Atom SCF Calculation for C  : Z (AE atom) =   6 : Z (PS atom) =   4
Config String: 2s2 2p2
Orbitals (num,occ):  2     2.00 2.00
Orbitals   (num,l):  2        0    1
Real-space Grid (nr,dr,rmax): 1377    0.0065406977    9.0000000000
Spherical Bessel Basis (nsws,lmax,cutoff):   37    2  183.0099912382
Confining potential (l,width,scale):  0    3.0000000000  100.0000000000
Confining potential (l,width,scale):  1    3.0000000000  100.0000000000
  1         -5.4350126632   -1.2715272878    4.5135247139   -1.5681949477
  2         -5.3876836850   -1.3562195125    4.4235426751   -1.5380057521
  3         -5.3928844498   -1.3758175853    4.4021699684   -1.5318377811
  4         -5.3988962903   -1.3800385428    4.3975423583   -1.5307324410
  5         -5.4018428823   -1.3823489590    4.3950111904   -1.5301555648
  6         -5.4033571720   -1.3835805046    4.3936635548   -1.5298576834
  7         -5.4041480647   -1.3842324820    4.3929512000   -1.5297032953
  8         -5.4045641108   -1.3845769138    4.3925755232   -1.5296229456
  9         -5.4047838258   -1.3847587737    4.3923775340   -1.5295810042
 10         -5.4049001347   -1.3848548089    4.3922731819   -1.5295590658
 11         -5.4049618018   -1.3849055476    4.3922181562   -1.5295475724
 12         -5.4049945351   -1.3849323732    4.3921891206   -1.5295415432
 13         -5.4050119258   -1.3849465673    4.3921737867   -1.5295383767
 14         -5.4050211723   -1.3849540841    4.3921656816   -1.5295367119
 15         -5.4050260920   -1.3849580684    4.3921613935   -1.5295358358
 16         -5.4050287113   -1.3849601822    4.3921591228   -1.5295353742
 17         -5.4050301068   -1.3849613045    4.3921579192   -1.5295351307
 18         -5.4050308507   -1.3849619010    4.3921572806   -1.5295350022
 19         -5.4050312476   -1.3849622183    4.3921569415   -1.5295349343
 20         -5.4050314594   -1.3849623873    4.3921567612   -1.5295348984
 21         -5.4050315725   -1.3849624773    4.3921566653   -1.5295348794
 22         -5.4050316330   -1.3849625253    4.3921566143   -1.5295348693
Atom SCF converged after  22 iterations to a total energy of     -5.40503163

Atom SCF Calculation for H  : Z (AE atom) =   1 : Z (PS atom) =   1
Config String: 1s1
Orbitals (num,occ):  1     1.00
Orbitals   (num,l):  1        0
Real-space Grid (nr,dr,rmax): 1377    0.0065406977    9.0000000000
Spherical Bessel Basis (nsws,lmax,cutoff):   37    1  183.0099912382
Confining potential (l,width,scale):  0    3.0000000000  100.0000000000
  1         -0.3605254152   -0.2399954029    0.2820952946   -0.2424203210
  2         -0.4156854077   -0.2398249290    0.2871789324   -0.2464796203
  3         -0.4412552402   -0.2379720642    0.2899127187   -0.2499011370
  4         -0.4517265951   -0.2371980236    0.2908966173   -0.2514141636
  5         -0.4557775773   -0.2369735141    0.2911607883   -0.2519713623
  6         -0.4573363459   -0.2369240355    0.2912108681   -0.2521663171
  7         -0.4579443228   -0.2369187864    0.2912112833   -0.2522344454
  8         -0.4581858602   -0.2369215483    0.2912049187   -0.2522587615
  9         -0.4582834939   -0.2369242589    0.2912002081   -0.2522677042
 10         -0.4583235236   -0.2369258837    0.2911975892   -0.2522710965
 11         -0.4583401154   -0.2369267223    0.2911962825   -0.2522724192
 12         -0.4583470483   -0.2369271266    0.2911956643   -0.2522729467
 13         -0.4583499624   -0.2369273145    0.2911953803   -0.2522731607
 14         -0.4583511926   -0.2369274000    0.2911952521   -0.2522732486
 15         -0.4583517136   -0.2369274385    0.2911951948   -0.2522732850
 16         -0.4583519349   -0.2369274556    0.2911951693   -0.2522733002
 17         -0.4583520290   -0.2369274632    0.2911951581   -0.2522733066
Atom SCF converged after  17 iterations to a total energy of     -0.45835203

Atom SCF Calculation for Li : Z (AE atom) =   3 : Z (PS atom) =   3
Config String: 1s2 2s1 2p0
Orbitals (num,occ):  3     2.00 1.00 0.00
Orbitals   (num,l):  3        0    0    1
Real-space Grid (nr,dr,rmax): 1377    0.0065406977    9.0000000000
Spherical Bessel Basis (nsws,lmax,cutoff):   37    2  183.0099912382
Confining potential (l,width,scale):  0    3.0000000000  100.0000000000
Confining potential (l,width,scale):  1    3.0000000000  100.0000000000
  1         -6.0640888065   -4.6655401716    2.5388576516   -0.9989538799
  2         -6.9627542978   -4.0954079129    2.9808988108   -1.1965571426
  3         -7.2692687601   -3.8889996707    3.2029735703   -1.3193883705
  4         -7.3784440298   -3.8322099748    3.2868571989   -1.3711018151
  5         -7.4170278248   -3.8191968371    3.3144974220   -1.3911175539
  6         -7.4303549880   -3.8172386945    3.3228486489   -1.3986896266
  7         -7.4348052089   -3.8175483495    3.3251259310   -1.4015352495
  8         -7.4362242328   -3.8180607346    3.3256233205   -1.4026016384
  9         -7.4366459715   -3.8184145665    3.3256561549   -1.4029998726
 10         -7.4367560626   -3.8186169740    3.3256001574   -1.4031477379
 11         -7.4367765260   -3.8187239825    3.3255481763   -1.4032021548
 12         -7.4367751741   -3.8187782620    3.3255144587   -1.4032219192
 13         -7.4367707398   -3.8188051288    3.3254952336   -1.4032289600
 14         -7.4367680349   -3.8188156035    3.3254870176   -1.4032309087
 15         -7.4367661982   -3.8188217406    3.3254819951   -1.4032318132
 16         -7.4367650112   -3.8188253257    3.3254789583   -1.4032322224
 17         -7.4367642682   -3.8188274151    3.3254771375   -1.4032324006
 18         -7.4367638134   -3.8188286307    3.3254760529   -1.4032324736
 19         -7.4367635392   -3.8188293370    3.3254754103   -1.4032325004
 20         -7.4367633760   -3.8188297469    3.3254750310   -1.4032325080
 21         -7.4367632796   -3.8188299846    3.3254748079   -1.4032325082
Atom SCF converged after  21 iterations to a total energy of     -7.43676328

Determining parallel strategy ...
... using space-filling curve
... NGWF load balancing: max     16;  min     12;  average     13
... Projector load balancing: max     32;  min     24;  average     27
... done
Calculating Ewald energy ...
              Ewald: real-space energy =   36016.586359
        Ewald: reciprocal-space energy =   35054.178100
         Ewald: (sum_charge)**2 Energy =    2771.893520
         Ewald: (sum_charge**2) Energy =     248.382900
                          Ewald Energy =   68050.488039
======================= Empirical dispersion information =======================
Model : Grimme D2
Dispersion Correction Energy: -0.20970497E+01 Hartree
================================================================================
Basis initialisation ...... NGWF spheres initialised
... Projector spheres initialised
... NGWF tight boxes initialised
... Projector tight boxes initialised
... Tight-boxes gathered
... NGWF basis size (local,global):     267459  43454678
... PAW projector initialisation
... done

============================= Charge Augmentation ==============================
                           Aug box size:   13 x  13 x  13
================================================================================

========================== Sparse matrix information ===========================
                        Overlap matrix filling:  38.16%
                        Density kernel filling: 100.00%
              NGWF-Proj overlap matrix filling:  10.77%
                    Aug Overlap matrix filling:  42.32%
                    Hamiltonian matrix filling:  42.32%
                  NGWF diagonal matrix filling:   0.18%
                             KS matrix filling: 100.00% 
                           KSKS matrix filling: 100.00% 
================================================================================

Sparse matrix initialisation ... done
NGWF initialisation ...... done
============ Calculation of NGWF S^-1 using Hotelling algorithm ================ 
         Iteration  |  Frobenius norm and Maximum abs value    (of I-S*S_n^-1)   
               1       0.46064627E+02     0.99607560E+00
               2       0.45737382E+02     0.99217946E+00
               3       0.45134831E+02     0.98446882E+00
               4       0.44102077E+02     0.96935433E+00
               5       0.42522029E+02     0.94022243E+00
               6       0.40414176E+02     0.88562099E+00
               7       0.37861205E+02     0.79210841E+00
               8       0.34921966E+02     0.77166234E+00
               9       0.31841397E+02     0.74680078E+00
              10       0.28877515E+02     0.73191158E+00
              11       0.25707212E+02     0.71401924E+00
              12       0.21657504E+02     0.69111494E+00
              13       0.16340640E+02     0.65106323E+00
              14       0.10158479E+02     0.58263164E+00
              15       0.47370804E+01     0.47122805E+00
              16       0.18167744E+01     0.31116414E+00
              17       0.94940140E+00     0.16288091E+00
              18       0.48298181E+00     0.89682794E-01
              19       0.13799648E+00     0.27274553E-01
              20       0.11977226E-01     0.25229360E-02
              21       0.97505524E-04     0.21587947E-04
              22       0.67557687E-08     0.15807009E-08
              23       0.51756118E-13     0.35527137E-14
================================================================================
Calculating core density ...
================================= Core Density =================================
               Core den box size:   21 x  21 x  21
================================================================================
 ... done
Up spin density kernel initialisation ...... done
Down spin density kernel initialisation ...... done

Writing density kernel to file "22/592nano.dkn" ... done

>>> Optimising kernel for current NGWFs:

--------------------------- Ensemble-DFT optimisation --------------------------
Running ScaLAPACK on  160 processor(s).

--------------------------------------------------------------------------------
  Iter                              Commutator    Free_energy(A=E-TS)     DeltaA
#    0                          0.001082595425   -2981.82854971704637  -2.98E+03

Step                       =       0.381966011250
Energy                     =   -2981.798593152012
Entropy (-TS)              =      -0.029956564514
Free energy (A=E-TS)       =   -2981.828549717046
Est. 0K Energy 0.5*(E+A)   =   -2981.813571434529
Residual Non-orthogonality =       0.000000000000
Residual N_electrons       =      -0.000000000520

Spin          Integrated_Ne            Fermi_level     Delta_Fermi_level
   1      1054.999999998950        -0.247626075727             -2.48E-01
   2      1054.999999998950        -0.247626075727             -2.48E-01

                           Spin 1           |                 Spin 2           |
     Orb |    H-eigenvalues     Occupancies |    H-eigenvalues     Occupancies |
       1 |    -1.8956563105    1.0000000000 |    -1.8956563105    1.0000000000 | 
                          ------                             ------
    1051 |    -0.2544015555    0.8946860862 |    -0.2544015555    0.8946860862 | 
    1052 |    -0.2537826304    0.8748003775 |    -0.2537826304    0.8748003775 | 
    1053 |    -0.2521923644    0.8087517964 |    -0.2521923644    0.8087517964 | 
    1054 |    -0.2512151933    0.7564572874 |    -0.2512151933    0.7564572874 | 
    1055 |    -0.2504262199    0.7076950420 |    -0.2504262199    0.7076950420 | 
                 - Gap at zero temperature - |     - Gap at zero temperature -
    1056 |    -0.2492534995    0.6257202359 |    -0.2492534995    0.6257202359 | 
    1057 |    -0.2458855828    0.3659562394 |    -0.2458855828    0.3659562394 | 
    1058 |    -0.2405180291    0.0958211555 |    -0.2405180291    0.0958211555 | 
    1059 |    -0.2319601413    0.0070551936 |    -0.2319601413    0.0070551936 | 
    1060 |    -0.2316930514    0.0064882608 |    -0.2316930514    0.0064882608 | 
                          ------                             ------
    2154 |     0.5613050025    0.0000000000 |     0.5613050025    0.0000000000 | 

                       |  Abs_value |  Threshold | Converged
     Delta_Free_energy |   2.98E+03 |   1.00E-06 |        No
     Delta_Energy      |   2.98E+03 |   1.00E-04 |        No
     Delta_Entropy     |   3.00E-02 |   1.00E-04 |        No
     Commutator        |   1.08E-03 |   1.00E-05 |        No
     Delta_Fermi_level |   2.48E-01 |   1.00E-03 |        No

  Line search of the free energy minimum:
  Step_type        Step             Free_energy   Predicted_free_energy
.   Initial    0.000000    -2981.82854971704637
.    Trial1    0.381966    -2981.54893187464086
.    Trial2    0.145898    -2982.39805571060970
. Quadratic    0.172343    -2982.41243614777022    -2982.41178788438765

--------------------------------------------------------------------------------
  Iter                              Commutator    Free_energy(A=E-TS)     DeltaA
#    1                          0.000710696236   -2982.41243614777022  -5.84E-01

Step                       =       0.172342806400
Energy                     =   -2982.381953219528
Entropy (-TS)              =      -0.030482928400
Free energy (A=E-TS)       =   -2982.412436147770
Est. 0K Energy 0.5*(E+A)   =   -2982.397194683649
Residual Non-orthogonality =       0.000000000000
Residual N_electrons       =       0.000000000157

Spin          Integrated_Ne            Fermi_level     Delta_Fermi_level
   1      1055.000000000338        -0.233561195263              1.41E-02
   2      1055.000000000333        -0.233561195310              1.41E-02

                           Spin 1           |                 Spin 2           |
     Orb |    H-eigenvalues     Occupancies |    H-eigenvalues     Occupancies |
       1 |    -1.9095220648    1.0000000000 |    -1.9095220649    1.0000000000 | 
                          ------                             ------
    1051 |    -0.2419964167    0.9348462592 |    -0.2419964167    0.9348462592 | 
    1052 |    -0.2405146686    0.8998657064 |    -0.2405146687    0.8998657064 | 
    1053 |    -0.2391380796    0.8533399732 |    -0.2391380796    0.8533399732 | 
    1054 |    -0.2376213025    0.7828037210 |    -0.2376213026    0.7828037210 | 
    1055 |    -0.2354928791    0.6479356784 |    -0.2354928792    0.6479356784 | 
                 - Gap at zero temperature - |     - Gap at zero temperature -
    1056 |    -0.2314221359    0.3372749874 |    -0.2314221359    0.3372749874 | 
    1057 |    -0.2310558131    0.3119245536 |    -0.2310558131    0.3119245536 | 
    1058 |    -0.2289698962    0.1900296356 |    -0.2289698963    0.1900296356 | 
    1059 |    -0.2239131222    0.0453635939 |    -0.2239131222    0.0453635939 | 
    1060 |    -0.2221634727    0.0266198824 |    -0.2221634728    0.0266198824 | 
                          ------                             ------
    2154 |     0.5743405665    0.0000000000 |     0.5743405664    0.0000000000 | 

                       |  Abs_value |  Threshold | Converged
     Delta_Free_energy |   5.84E-01 |   1.00E-06 |        No
     Delta_Energy      |   5.83E-01 |   1.00E-04 |        No
     Delta_Entropy     |   5.26E-04 |   1.00E-04 |        No
     Commutator        |   7.11E-04 |   1.00E-05 |        No
     Delta_Fermi_level |   1.41E-02 |   1.00E-03 |        No

[...]
 C    39 -- C   516       -0.08     -0.00      5.40757
 C   444 -- C   492       -0.09     -0.00      5.40789
 C   377 -- C   391       -0.09     -0.00      5.40839
 C   409 -- C   455       -0.09     -0.00      5.40845
 C    80 -- C   538       -0.08     -0.00      5.40859
 C    74 -- C   488       -0.09     -0.00      5.40860
 C   339 -- C   497       -0.10     -0.00      5.40893
 C    84 -- C   114       -0.09     -0.00      5.40900
 C   272 -- C   294       -0.09     -0.00      5.40939
 C   430 -- C   480       -0.08     -0.00      5.40944
 C    71 -- C   516       -0.10      0.00      5.40964
 C    92 -- C   564       -0.09      0.00      5.41013
 C   185 -- C   299       -0.09     -0.00      5.41029
 C    52 -- C   338       -0.09      0.00      5.41042
 C   183 -- C   237       -0.08     -0.00      5.41056
 C   115 -- C   479       -0.09     -0.00      5.41093
 C   262 -- C   460       -0.09     -0.00      5.41103
 C    75 -- C   463       -0.10      0.00      5.41107
 C    88 -- C   560       -0.08     -0.00      5.41143
 C    40 -- C    54       -0.09     -0.00      5.41147
 C   205 -- C   207       -0.09     -0.00      5.41159
 C   261 -- C   263       -0.09     -0.00      5.41191
 C   423 -- C   459       -0.09     -0.00      5.41192
 C   182 -- C   188       -0.10      0.00      5.41204
 C   199 -- C   241       -0.08     -0.00      5.41208
 C    87 -- C    93       -0.09     -0.00      5.41303
 C   256 -- C   410       -0.09     -0.00      5.41305
 C   441 -- C   463       -0.08      0.00      5.41346
 C   466 -- C   538       -0.10      0.00      5.41356
 C    82 -- C   492       -0.09     -0.00      5.41381
 C   186 -- C   192       -0.09     -0.00      5.41393
 C    53 -- C   395       -0.09     -0.00      5.41397
 C    81 -- C    87       -0.09     -0.00      5.41440
 C    38 -- C   104       -0.08     -0.00      5.41450
 C    77 -- C    91       -0.08     -0.00      5.41466
 C   342 -- C   388       -0.08     -0.00      5.41470
 C   319 -- C   361       -0.09     -0.00      5.41483
 C   252 -- C   286       -0.08      0.00      5.41493
 C   188 -- C   286       -0.08     -0.00      5.41537
 C    62 -- C   368       -0.09     -0.00      5.41611
 C   205 -- C   263       -0.08     -0.00      5.41622
 C   186 -- C   212       -0.08     -0.00      5.41662
 C    40 -- C   102       -0.08     -0.00      5.41683
 C   285 -- C   407       -0.09     -0.00      5.41700
 C   416 -- C   476       -0.09      0.00      5.41703
 C   440 -- C   488       -0.08     -0.00      5.41724
 C   408 -- C   416       -0.09      0.00      5.41802
 C   238 -- C   314       -0.09      0.00      5.41821
 C   293 -- C   421       -0.09      0.00      5.41910
 C   231 -- C   241       -0.08      0.00      5.41913
 C    85 -- C    95       -0.08     -0.00      5.41915
 C   206 -- C   304       -0.09      0.00      5.41997
 C   202 -- C   208       -0.09     -0.00      5.42070
 C   260 -- C   420       -0.09      0.00      5.42112
 C    65 -- C    91       -0.09     -0.00      5.42130
 C   220 -- C   238       -0.08      0.00      5.42141
 C    79 -- C    89       -0.08     -0.00      5.42165
 C   332 -- C   388       -0.08     -0.00      5.42311
 C   185 -- C   235       -0.08      0.00      5.42462
 C   293 -- C   295       -0.08     -0.00      5.42475
 C   313 -- C   319       -0.08      0.00      5.42602
 C   262 -- C   292       -0.08      0.00      5.42628
 C    96 -- C   567       -0.08      0.00      5.42676
 C   103 -- C   525       -0.08     -0.00      5.42868
 C    56 -- C   342       -0.09      0.00      5.42982
 C    83 -- C   467       -0.09      0.00      5.43025
 C   333 -- C   365       -0.08     -0.00      5.43055
 C   197 -- C   199       -0.09      0.00      5.43136
 C   224 -- C   242       -0.08     -0.00      5.43146
 C    76 -- C   564       -0.08     -0.00      5.43211
 C   477 -- C   485       -0.08      0.00      5.43215
 C   385 -- C   395       -0.08     -0.00      5.43418
 C   189 -- C   255       -0.08     -0.00      5.43514
 C   233 -- C   239       -0.08      0.00      5.43529
 C   190 -- C   284       -0.08     -0.00      5.43532
 C   316 -- C   390       -0.08     -0.00      5.43551
 H   177 -- Li  602       -0.03      0.00      5.43569
 C   252 -- C   406       -0.09      0.00      5.43588
 H   592 -- Li  606       -0.03     -0.00      5.43654
 C   330 -- C   394       -0.08      0.00      5.43715
 H   174 -- Li  611       -0.03      0.00      5.43752
 C    67 -- C   511       -0.09      0.00      5.43799
 C   202 -- C   216       -0.08     -0.00      5.43894
 H   587 -- Li  608       -0.02      0.00      5.43933
 C   230 -- C   318       -0.09     -0.00      5.43948
 C   481 -- C   489       -0.08     -0.00      5.43954
 C   198 -- C   204       -0.08     -0.00      5.44024
 C   343 -- C   506       -0.08      0.00      5.44360
 C   201 -- C   239       -0.08     -0.00      5.44363
 C   368 -- C   394       -0.08     -0.00      5.44570
 C   470 -- C   547       -0.08      0.00      5.44668
 C   285 -- C   287       -0.08     -0.00      5.44706
 C   253 -- C   413       -0.08      0.00      5.44994
 C   254 -- C   284       -0.07     -0.00      5.45222
 C   227 -- C   309       -0.08     -0.00      5.45508
 H   583 -- Li  610       -0.03     -0.00      5.45675
 C   261 -- C   427       -0.08      0.00      5.45984
 H   587 -- Li  604       -0.02     -0.00      5.46088
 H   312 -- Li  606       -0.03     -0.00      5.46155
 C    68 -- C   556       -0.08      0.00      5.46432
 H   581 -- Li  601       -0.02     -0.00      5.49469
 H   519 -- Li  601       -0.02     -0.00      5.53520
 H   582 -- Li  607       -0.02     -0.00      5.54770
 H   590 -- Li  599       -0.02      0.00      5.56095
 C   287 -- Li  612       -0.05     -0.00      5.56474
 H   412 -- Li  598       -0.02     -0.00      5.58475
 C   404 -- C   417       -0.04      0.00      5.58865
 H   151 -- Li  595       -0.02     -0.00      5.59215
 H   165 -- Li  594       -0.02     -0.00      5.60990
 H   401 -- Li  598       -0.02      0.00      5.61294
 H   544 -- Li  596       -0.02      0.00      5.62253
 H   474 -- Li  610       -0.02      0.00      5.62432
 H   509 -- Li  597       -0.02      0.00      5.62455
 C   288 -- Li  612       -0.06     -0.00      5.63922
 H   176 -- Li  602       -0.01      0.00      5.64905
 H   539 -- Li  599       -0.02      0.00      5.65190
 H   548 -- Li  596       -0.02     -0.00      5.65266
 C    68 -- Li  614       -0.04      0.00      5.65993
=============================================================


============== Orbital energy and occupancy information for spin 1 =============

      Total number of orbitals:    2154
        Occupancy sum (kernel):    1054.999999971
   Occupancy sum (eigenvalues):    1054.999999971
                 HOMO-LUMO gap:       0.003058317 Eh
                 Mid-gap level:      -0.094201846 Eh

                        Orbital | Energy (Eh) | Occupancy
                            1    -1.843266831   1.0000000
                        .......   ...........   .........
                         1046    -0.110174262   0.9945185
                         1047    -0.108379885   0.9903715
                         1048    -0.107343776   0.9867135
                         1049    -0.103098412   0.9512276
                         1050    -0.102595172   0.9428887
                         1051    -0.101693013   0.9258753
                         1052    -0.099418451   0.8569850
                         1053    -0.098760179   0.8308893
                         1054    -0.097656268   0.7760935
                         1055    -0.095731005   0.6530441
                        ....... -- gap at 0K -- .........
                         1056    -0.092672688   0.4183535
                         1057    -0.092185379   0.3816704
                         1058    -0.088382597   0.1559308
                         1059    -0.084462005   0.0506902
                         1060    -0.083733485   0.0405039
                         1061    -0.079618727   0.0113848
                         1062    -0.079415923   0.0107168
                         1063    -0.077947658   0.0067380
                         1064    -0.076447244   0.0041910
                         1065    -0.076114396   0.0037889
                        .......   ...........   .........
                         2154     0.770731162   0.0000000

================================================================================

============== Orbital energy and occupancy information for spin 2 =============

      Total number of orbitals:    2154
        Occupancy sum (kernel):    1055.000000030
   Occupancy sum (eigenvalues):    1055.000000030
                 HOMO-LUMO gap:       0.000487308 Eh
                 Mid-gap level:      -0.092429034 Eh

                        Orbital | Energy (Eh) | Occupancy
                            1    -1.843266831   1.0000000
                        .......   ...........   .........
                         1047    -0.108379885   0.9903715
                         1048    -0.107343776   0.9867135
                         1049    -0.103098412   0.9512276
                         1050    -0.102595172   0.9428887
                         1051    -0.101693013   0.9258753
                         1052    -0.099418451   0.8569850
                         1053    -0.098760179   0.8308893
                         1054    -0.097656268   0.7760935
                         1055    -0.095731005   0.6530442
                         1056    -0.092672688   0.4183535
                        ....... -- gap at 0K -- .........
                         1057    -0.092185380   0.3816704
                         1058    -0.088382597   0.1559307
                         1059    -0.084462004   0.0506902
                         1060    -0.083733485   0.0405039
                         1061    -0.079618728   0.0113848
                         1062    -0.079415923   0.0107168
                         1063    -0.077947658   0.0067380
                         1064    -0.076447244   0.0041910
                         1065    -0.076114396   0.0037889
                         1066    -0.075645126   0.0032793
                        .......   ...........   .........
                         2154     0.770731163   0.0000000

================================================================================

===================== Writing canonical molecular orbitals =====================
    Spin 1
| Orbital  Energy (eV)  Norm     |
| HOMO     -2.60497319  1.000000 | Writing "22/592nano_HOMO_UP.cube" ... done
Writing "22/592nano_HOMO_UP.dx" ... done
| LUMO     -2.52175215  1.000000 | Writing "22/592nano_LUMO_UP.cube" ... done
Writing "22/592nano_LUMO_UP.dx" ... done
================================================================================

===================== Writing canonical molecular orbitals =====================
    Spin 2
| Orbital  Energy (eV)  Norm     |
| HOMO     -2.52175215  1.000000 | Writing "22/592nano_HOMO_DN.cube" ... done
Writing "22/592nano_HOMO_DN.dx" ... done
| LUMO     -2.50849182  1.000000 | Writing "22/592nano_LUMO_DN.cube" ... done
Writing "22/592nano_LUMO_DN.dx" ... done
================================================================================

================== Local Density of States (LDOS) calculation ==================
Writing "22/592nano_UP_LDOS.txt" ...  done
================================================================================

================== Local Density of States (LDOS) calculation ==================
Writing "22/592nano_DN_LDOS.txt" ...  done
================================================================================
 
=============== Density of States (DOS) calculation for UP spin ================
Writing "22/592nano_UP_DOS.txt" ...  done
================================================================================
 
============== Density of States (DOS) calculation for DOWN spin ===============
Writing "22/592nano_DN_DOS.txt" ...  done
================================================================================
 
Writing bands to file "22/592nano.val_bands" ... done
 
================ Projected Density of States (pDOS) calculation ================
 
Constructing AM resolved functions  ...... done
Writing NGWF plot files in formats: CUBE DX ...  done
 
Performing overlap integrals ...  done
 
Computing pDOS weights ...  done
 
All bands spilling parameter =   3.29 %
Occupancy-weighted spilling parameter =   0.91 %
 
 => Outputting data for OptaDOS <=
 
Writing pDOS weights to file "22/592nano.val_pdos_bin" ... done
 
Writing band gradients to file "22/592nano.val_dome_bin" ... done
 
Writing Castep output cell file to "22/592nano-out.cell" ... done
 
 => Computing Gaussian smeared pDOS for UP spin<= 
Writing "22/592nano_UP_PDOS.txt" ...  done
 
 => Computing Gaussian smeared pDOS for DOWN spin<= 
Writing "22/592nano_DN_PDOS.txt" ...  done
 
 => Computing Occupancy-weighted Gaussian smeared pDOS for UP spin<= 
Writing "22/592nano_occ_UP_PDOS.txt" ...  done
  => Band centres for UP spin channel: 
 S band centre of group 1:  -16.566990 eV
 P band centre of group 1:   -7.964324 eV
  Band centres for UP spin channel done. <= 
  => Integrated number of electrons in each AM band for UP spin channel: 
 S num electrons of group 1:  286.985722
 P num electrons of group 1:  758.384869
  Integrated number of electrons for UP spin channel done. <= 
 
 => Computing Occupancy-weighted Gaussian smeared pDOS for DOWN spin<= 
Writing "22/592nano_occ_DN_PDOS.txt" ...  done
  => Band centres for DOWN spin channel: 
 S band centre of group 1:  -16.566990 eV
 P band centre of group 1:   -7.964324 eV
  Band centres for DOWN spin channel done. <=
  => Integrated number of electrons in each AM band for DOWN spin channel: 
 S num electrons of group 1:  286.985722
 P num electrons of group 1:  758.384869
  Integrated number of electrons for DOWN spin channel done. <=
================================================================================

------------------------------ TIMING INFORMATION ------------------------------
AVERAGE TIME:   15476.802s on    160 node(s)                                    
TOTAL TIME:     15476.803s on    160 node(s)                                    
================= AVERAGE TIMINGS FROM ALL NODES (CUMULATIVE) ==================
|| TAG                                    #calls    cpu time   %total  Gflops ||
|| work_imbalance                       :     1        0.00s   0.000%  ------ ||
|| sparse_set_to_garbage                :   219        0.01s   0.000%  ------ ||
|| paw_sphere_density_on_grid           :     1        0.01s   0.000%  ------ ||
|| paw_tcore_density                    :     1        0.01s   0.000%  ------ ||
|| basis_extract_function_from_box      :   350        0.02s   0.000%  ------ ||
|| paw_dij_hartree                      :   908        0.03s   0.000%  ------ ||
|| ngwfs_initialise_from_radial         :     2        0.04s   0.000%  ------ ||
|| ewald_calculate_energy               :     1        0.13s   0.001%  ------ ||
|| density_init_guess_real              :     1        0.19s   0.001%  ------ ||
|| paw_dataset_init                     :     3        0.33s   0.002%  ------ ||
|| paw_tcore_hartree_on_grid            :     1        0.37s   0.002%  ------ ||
|| pseudo_make_structure_factor         :     1        0.50s   0.003%  ------ ||
|| sparse_init                          :     1        1.12s   0.007%  ------ ||
|| restart_kernel_write                 :    14        1.21s   0.008%  ------ ||
|| dense_normal_eigensolve              :     1        1.28s   0.008%  ------ ||
|| paw_species_calc_proj_prec_mat       :     1        2.18s   0.014%  ------ ||
|| sparse_embed_hotelling_invert_embed  :    25        5.16s   0.033%  ------ ||
|| sw_init                              :     1        7.55s   0.049%  ------ ||
|| fourier_apply_box_pair               :   876        9.83s   0.063%  2.355k ||
|| ngwf_gradient_coeffs                 :    13       11.50s   0.074%  ------ ||
|| augmentation_screen_dij              :   680       11.86s   0.077%  ------ ||
|| projectors_init_fftbox_recip         :    53       20.08s   0.130%  ------ ||
|| basis_copy_function_to_box           : 24851       31.63s   0.204%  ------ ||
|| integrals_kinetic                    :    25       34.26s   0.221%  ------ ||
|| hartree_on_grid                      :   675       39.75s   0.257%  ------ ||
|| paw_dij_xc                           :   908       40.01s   0.258%  ------ ||
|| projectors_func_ovlp_box             :    26       41.93s   0.271%  ------ ||
|| function_ops_brappd_ketppd           :    52       44.99s   0.291%  ------ ||
|| hamiltonian_energy_components        :     3       73.35s   0.474%  ------ ||
|| eigenstates_pdos                     :     1       98.78s   0.638%  ------ ||
|| sparse_trace                         : 16956       99.46s   0.643%  ------ ||
|| augmentation_density_on_grid         :   675      120.93s   0.781%  ------ ||
|| restart_ngwfs_tightbox_output        :    12      121.13s   0.783%  ------ ||
|| aug_nonlocal_mat                     :   895      128.17s   0.828%  ------ ||
|| fourier_apply_cell_forward           :  6067      138.65s   0.896% 152.298 ||
|| basis_dot_function_with_box          : 5.334M     143.37s   0.926%  ------ ||
|| fourier_apply_cell_backward          :  6068      144.19s   0.932% 146.477 ||
|| eigenstates_calculate                :     1      204.13s   1.319%  ------ ||
|| xc_energy_potential                  :   674      281.82s   1.821%  ------ ||
|| sparse_product                       : 14606      433.98s   2.804%  ------ ||
|| basis_add_function_to_box            : 16.09M     514.34s   3.323%  ------ ||
|| projectors_gradient_batch            :    13      558.60s   3.609%  ------ ||
|| integrals_locpot_mat_els_batch       :   455      578.55s   3.738%  ------ ||
|| dense_eigensolve                     :  1292      583.89s   3.773%  ------ ||
|| cell_grid_extract_box_real           : 13156      642.65s   4.152%  ------ ||
|| cell_grid_deposit_box_real           : 43284      748.57s   4.837%  ------ ||
|| projectors_grad_precond_batch        :    13      774.96s   5.007%  ------ ||
|| density_batch_row_sums               :   675     1330.09s   8.594%  ------ ||
|| density_fftbox_deposit_to_cell       : 21600     1420.92s   9.181%  ------ ||
|| properties_calculate                 :     1     1441.40s   9.313%  ------ ||
|| ngwf_gradient_build_batch            :    13     1487.16s   9.609%  ------ ||
|| ngwf_gradient_batch                  :    13     1615.48s  10.438%  ------ ||
|| ngwf_gradient_lnv                    :    13     1635.64s  10.568%  ------ ||
|| fourier_apply_box                    : 79151     1654.99s  10.693%  4.143k ||
|| potential_apply_to_ngwf_batch        :   455     1668.84s  10.783%  ------ ||
|| edft_diag_ngwf_ham                   :  1290     1692.28s  10.934%  ------ ||
|| density_fftbox_interpolate_multiply  : 21600     1866.79s  12.062%  ------ ||
|| integrals_locpot_dbl_grid            :   455     2271.11s  14.674%  ------ ||
|| edft_apply_smearing_operator         :   645     2710.76s  17.515%  ------ ||
|| density_batch_interp_deposit         :   675     3995.97s  25.819%  ------ ||
|| density_on_dbl_grid                  :   675     5436.47s  35.127%  ------ ||
|| hamiltonian_lhxc_calculate           :   670     6031.62s  38.972%  ------ ||
|| edft_calculate                       :    13    11287.22s  72.930%  ------ ||
|| ngwf_cg_optimise                     :     1    14014.17s  90.550%  ------ ||
|| total_time                           :     1    15476.80s 100.000%  ------ ||
================================================================================
Overhead of generating timer report: 
- 0 ms averaging over threads,
- 25 ms ensuring consistency across MPI ranks,
- 0 ms printing in order.

Job completed: 12-09-2020 07:51 (+0100)

