 +---------------------------------------------------------------+
 |                                                               |
 |        ####### #     # ####### ####### ####### ######         |
 |        #     # ##    # #          #    #       #     #        |
 |        #     # # #   # #          #    #       #     #        |
 |        #     # #  #  # #####      #    #####   ######         |
 |        #     # #   # # #          #    #       #              |
 |        #     # #    ## #          #    #       #              |
 |        ####### #     # #######    #    ####### #              |
 |                                                               |
 |        Linear-Scaling Ab Initio Total Energy Program          |
 |                                                               |
 |          Release for academic collaborators of ODG            |
 |                                             Version 5.3.2.12  |
 |                                                               |
 +---------------------------------------------------------------+
 |                                                               |
 |  Authors:                                                     |
 |  Jacek Dziedzic, Peter D. Haynes, Nicholas D. M. Hine,        |
 |  Arash. A. Mostofi, Mike C. Payne and Chris-Kriton Skylaris   |
 |                                                               |
 |  Contributors:                                                |
 |  J. Aarons, L. Andrinopoulos, P. W. Avraam, R. A. Bell,       |
 |  A. Bhandari, G. A. Bramley, R. J. Charlton, S. J. Clark,     |
 |  R. J. Clements, G. C. Constantinescu, F. Corsetti,           |
 |  N. Corsini, O. Dieguez, S. M. M. Dubois, K. K. B. Duff,      |
 |  J. M. Escartin, A. Greco, H. Helal, Q. O. Hill, L. P. Lee,   |
 |  J.-H. Li, E. B. Linscott, G. Moynihan, D. D. O`Regan,        |
 |  O. K. Okan, M. J. S. Phipps, C. J. Pickard,                  |
 |  J. C. A. Prentice, M. I. J. Probert, L. E. Ratcliff,         |
 |  M. Robinson, A. Ruiz Serrano, J. S. Spencer, E. W. Tait,     |
 |  G. Teobaldi, D. Turban, V. Vitale, K. A. Wilkinson,          |
 |  C. Weber, J. C. Womack, N. Yeung and T. J. Zuehlsdorff       |
 |                                                               |
 |                                   Copyright (c) 2004-2020     |
 |                                                               |
 |  Please cite:                                                 |
 |  "Introducing ONETEP: Linear-scaling density functional       |
 |   simulations on parallel computers".                         |
 |   C.-K. Skylaris, P. D. Haynes, A. A. Mostofi, M. C. Payne.   |
 |   J. Chem. Phys. 122 084119 (2005).                           |
 |                                                               |
 |          in all publications arising from your use of ONETEP. |
 |                                                               |
 +---------------------------------------------------------------+
 |                                                               |
 |   ONETEP is based on developments described in the following  |
 |   publications:                                               |
 |                                                               |
 |  "Nonorthogonal generalized Wannier function pseudopotential  |
 |   plane-wave method".                                         |
 |   C.-K. Skylaris, A. A. Mostofi, P. D. Haynes, O. Dieguez,    |
 |   M. C. Payne.                                                |
 |   Phys. Rev. B 66 035119 (2002).                              |
 |                                                               |
 |  "Preconditioned iterative minimization for linear-scaling    |
 |   electronic structure calculations".                         |
 |   A. A. Mostofi, P. D. Haynes, C.-K. Skylaris, M. C. Payne.   |
 |   J. Chem. Phys. 119(17), pp.8842-8848 (2003).                |
 |                                                               |
 |  "Total-energy calculations on a real space grid with         |
 |   localized functions and a plane-wave basis".                |
 |   A. A. Mostofi, C.-K. Skylaris, P. D. Haynes, M. C. Payne.   |
 |   Comput. Phys. Commun. 147, pp.788-802 (2002).               |
 |                                                               |
 |  "Accurate kinetic energy evaluation in electronic structure  |
 |   calculations with localized functions on real space grids"  |
 |   C.-K. Skylaris, A. A. Mostofi, P. D. Haynes, C. J. Pickard, |
 |   M. C. Payne.                                                |
 |   Comput. Phys. Commun. 140, pp.315-322 (2001).               |
 |                                                               |
 |  "Accurate ionic forces and geometry optimization in linear-  |
 |   scaling density-functional theory with local orbitals"      |
 |   N. D. M. Hine, M. Robinson, P. D. Haynes, C.-K. Skylaris,   |
 |   M. C. Payne, and A. A. Mostofi.                             |
 |   Phys. Rev. B 83 195102 (2011).                              |
 |                                                               |
 +---------------------------------------------------------------+

Job started: 15-10-2020 00:38 (+0100)
 
Reading parameters from file "44/592nano.dat" ...... done

If your calculation crashes here, before "Checking processes and threads..."
is displayed, then your stack size is insufficient.
If so, use "ulimit -s unlimited" at runtime.
You can disable this check with "check_stack_size F".

Checking processes and threads...
   Determining the default number of threads...
      No default threads set at compilation time: defaulting to 1.
      OpenMP library call suggests 4 threads.
      Hybrid MPI-OpenMP compilation detected.
      Number of MPI processes > 1.
      OMP_NUM_THREADS environment variable present and
      its value matches the one obtained from the OpenMP library call.
      Using this value as default.
      Default threads: 4
      Default applies to threads_max and threads_num_fftboxes.
      Settings in the input file override this default.
   ... done

   Running with 160 MPI processes.
   There are 10 MPI processes running on the same node as the root process.
   Each MPI process is using: 
               1 threads for simulation cell FFTs.
               1 threads for parallel FFT box operations.
               4 threads for loops over batched FFT box operations.
               4 threads in other parallel regions.
... done

Basic input checks...
Resetting ngwf_cg_rotate to TRUE for EDFT calculations
... done

Reading geometry and species blocks from file "44/592nano.dat" ...    
  Number of PPD points along a3 set to 1.  This is 
  the default value, it may have been provided also in the input file.
... done
 Writing xyz coordinates to file "44/592nano.xyz" ... done


--------------------------------------------------------------------------------
---------------------------------- INPUT FILE ----------------------------------
--------------------------------------------------------------------------------

task : singlepoint                                                              
do_properties : true                                                            
ddec_classical_hirshfeld T                                                      
dx_format T                                                                     
edft T                                                                          
edft_spin_fix 3                                                                 
output_detail VERBOSE                                                           
write_xyz T                                                                     
dispersion 4                                                                    
xc_functional PBE                                                               
cutoff_energy 830 eV                                                            
paw T                                                                           
geom_disp_tol 0.015 bohr                                                        
geom_energy_tol 1.5E-6 hartree                                                  
geom_force_tol 0.003 "ha/bohr"                                                  
EDFT_MAXIT 30                                                                   
pdos_max_l = 2                                                                  
dos_smear  0.1 eV                                                               
popn_calculate T                                                                
PDOS_PSEUDOATOMIC T                                                             
PDOS_REDUCE_SWS F                                                               
PDOS_CONSTRUCT_BASIS F                                                          
PDOS_LOWDIN T                                                                   
PDOS_ORTH_ATOM_BLOCKS F                                                         
PDOS_LCAO_OPTIMIZE F                                                            
pdos_optados_output T                                                           
homo_plot 0                                                                     
lumo_plot 0                                                                     
homo_dens_plot -1                                                               
lumo_dens_plot -1                                                               
%BLOCK SPECIES                                                                  
C C 6 4 9.0                                                                     
H H 1 1 9.0                                                                     
Li Li 3 5 9.0                                                                   
%ENDBLOCK SPECIES                                                               
%BLOCK SPECIES_POT                                                              
C "~/pp/paw/c_pbe_abinit.paw"                                                   
H "~/pp/paw/h_pbe_abinit.paw"                                                   
Li "~/pp/paw/li_pbe_abinit.paw"                                                 
%ENDBLOCK SPECIES_POT                                                           
%BLOCK SPECIES_ATOMIC_SET                                                       
C "SOLVE conf=2s2 2p2"                                                          
H "SOLVE conf=1s1"                                                              
Li "SOLVE conf=1s2 2s1 2p0"                                                     
%ENDBLOCK SPECIES_ATOMIC_SET                                                    
%BLOCK SPECIES_LDOS_GROUPS                                                      
C                                                                               
H                                                                               
Li                                                                              
%ENDBLOCK SPECIES_LDOS_GROUPS                                                   
%BLOCK LATTICE_CART                                                             
94.486315650000      0.000000000000       0.000000000000                        
0.000000000000       94.486315650000      0.000000000000                        
0.000000000000       0.000000000000       94.486315650000                       
%ENDBLOCK LATTICE_CART                                                          
%BLOCK POSITIONS_ABS                                                            
C 45.470679 50.708991 30.198375                                                 
C 45.453715 50.596953 36.245114                                                 
C 46.813027 53.055485 30.179748                                                 
C 48.165194 50.604141 36.260761                                                 
C 49.532616 48.387708 30.097982                                                 
C 49.525646 48.259640 36.183631                                                 
C 50.875793 50.733246 30.100301                                                 
C 52.232829 48.264039 36.176895                                                 
C 45.451284 55.388189 30.099773                                                 
C 45.454191 55.286643 36.300785                                                 
C 46.792287 57.727359 29.948956                                                 
C 48.159472 55.288933 36.395264                                                 
C 49.514138 53.064199 30.140904                                                 
C 49.508140 52.942524 36.375770                                                 
C 50.855715 55.408261 30.028579                                                 
C 52.206625 52.948300 36.475049                                                 
C 45.394681 50.473943 43.652595                                                 
C 45.391863 50.411089 49.622644                                                 
C 46.756595 52.832541 43.588803                                                 
C 48.095940 50.411987 49.637514                                                 
C 49.463936 48.135465 43.662542                                                 
C 49.445081 48.073268 49.699916                                                 
C 50.825630 50.499933 43.594086                                                 
C 52.142954 48.074068 49.840918                                                 
C 45.408050 55.169490 43.590858                                                 
C 45.389999 55.088278 49.713111                                                 
C 46.749441 57.507954 43.461453                                                 
C 48.090726 55.091144 49.706168                                                 
C 49.451339 52.844436 43.518565                                                 
C 49.443191 52.752997 49.675406                                                 
C 50.799808 55.172434 43.375969                                                 
C 52.140685 52.756527 49.789690                                                 
C 57.626037 48.429016 29.542368                                                 
C 57.607094 48.281788 36.504160                                                 
C 58.972905 50.778578 29.496968                                                 
C 60.310867 48.291300 36.518508                                                 
C 57.608532 48.171595 43.436116                                                 
C 57.494252 48.077505 50.424774                                                 
C 58.957719 50.522844 43.394077                                                 
C 60.202492 48.083210 50.786216                                                 
C 53.575303 50.746240 29.954025                                                 
C 53.569233 50.622230 36.389556                                                 
C 54.910219 53.091338 29.863648                                                 
C 56.272087 50.632175 36.523625                                                 
C 53.527055 50.509945 43.460112                                                 
C 53.486679 50.415134 49.902037                                                 
C 54.875898 52.857154 43.305865                                                 
C 56.175055 50.415606 50.192272                                                 
C 57.639501 43.764488 29.273533                                                 
C 57.658306 43.594100 36.493926                                                 
C 58.984910 46.088020 29.300162                                                 
C 60.391818 43.596500 36.588645                                                 
C 57.606730 43.484927 43.341105                                                 
C 57.517303 43.400942 50.583885                                                 
C 58.963824 45.818782 43.450913                                                 
C 60.214025 43.400379 50.911185                                                 
C 53.588537 46.076987 29.767543                                                 
C 53.592915 45.901701 36.312519                                                 
C 54.930819 48.415674 29.787145                                                 
C 56.290524 45.923280 36.440631                                                 
C 53.546318 45.816502 43.437319                                                 
C 53.486231 45.733281 50.023368                                                 
C 54.906283 48.162322 43.436228                                                 
C 56.171468 45.745556 50.320433                                                 
C 57.584588 57.777989 29.490072                                                 
C 57.582297 57.644942 36.808088                                                 
C 58.914815 60.140790 29.258884                                                 
C 60.304621 57.656602 36.801287                                                 
C 57.550296 57.530557 43.042943                                                 
C 57.531540 57.437798 50.280870                                                 
C 58.901807 59.892095 42.953791                                                 
C 60.250847 57.425466 50.515783                                                 
C 45.424312 64.711095 29.173895                                                 
C 45.417915 64.648007 36.400250                                                 
C 46.786215 67.054517 28.902894                                                 
C 48.116927 64.655673 36.299371                                                 
C 49.466768 62.380946 29.371295                                                 
C 49.493558 62.298537 36.402600                                                 
C 50.836725 64.747115 29.050211                                                 
C 52.211343 62.294052 36.544862                                                 
C 45.402326 64.536781 43.242109                                                 
C 45.400737 64.419927 50.445150                                                 
C 46.765191 66.894875 43.160608                                                 
C 48.088855 64.422717 50.474340                                                 
C 49.442077 62.179016 43.388335                                                 
C 49.436831 62.090680 50.260653                                                 
C 50.800509 64.539619 43.572296                                                 
C 52.119148 62.102291 50.378390                                                 
C 53.533104 60.077952 29.599836                                                 
C 53.541549 59.960052 36.676461                                                 
C 54.883763 62.448923 29.387358                                                 
C 56.236922 59.975826 36.794441                                                 
C 53.485658 59.843721 43.171610                                                 
C 53.473412 59.773139 50.174286                                                 
C 54.848098 62.207008 43.111794                                                 
C 56.191768 59.774530 50.286833                                                 
C 57.609191 53.105138 29.626379                                                 
C 57.588418 52.970820 36.693570                                                 
C 58.948174 55.465158 29.451628                                                 
C 60.321430 53.008721 36.760777                                                 
C 57.579869 52.859265 43.232241                                                 
C 57.507845 52.761529 50.321915                                                 
C 58.918320 55.212646 43.095256                                                 
C 60.225071 52.775701 50.687839                                                 
C 45.432484 60.053551 29.738124                                                 
C 45.451020 59.972792 36.366970                                                 
C 46.780886 62.381748 29.443296                                                 
C 48.141769 59.958402 36.418969                                                 
C 49.493544 57.735593 29.915993                                                 
C 49.494853 57.621823 36.480408                                                 
C 50.835271 60.070588 29.657091                                                 
C 52.197894 57.626559 36.614042                                                 
C 45.389215 59.861371 43.416957                                                 
C 45.393699 59.755515 50.001969                                                 
C 46.742916 62.189358 43.349071                                                 
C 48.089877 59.762161 49.998503                                                 
C 49.445799 57.504911 43.356444                                                 
C 49.438082 57.429612 49.842760                                                 
C 50.798790 59.852654 43.293984                                                 
C 52.136050 57.434163 49.927375                                                 
C 53.551591 55.417535 29.901272                                                 
C 53.544836 55.298052 36.631494                                                 
C 54.883362 57.766636 29.700760                                                 
C 56.236034 55.301160 36.728552                                                 
C 53.514872 55.176860 43.271433                                                 
C 53.485575 55.099479 49.901985                                                 
C 54.848580 57.516315 43.149799                                                 
C 56.177682 55.096287 50.128738                                                 
H 27.313625 41.297969 28.673618                                                 
H 28.243737 39.382518 35.955851                                                 
H 27.110081 41.087360 43.664550                                                 
H 28.196642 39.299862 50.650520                                                 
H 41.861312 30.241447 28.934921                                                 
C 42.884742 32.033613 29.037378                                                 
H 44.468745 30.133624 36.658058                                                 
H 41.789933 29.925728 43.425852                                                 
C 42.797001 31.727815 43.344866                                                 
H 44.365007 29.975999 50.815651                                                 
H 29.646305 37.213501 28.926675                                                 
C 30.676946 39.003364 28.963864                                                 
H 32.348605 37.056109 36.327728                                                 
H 33.722589 34.847206 29.093038                                                 
C 34.748252 36.638276 29.180851                                                 
H 29.458774 36.986362 43.722501                                                 
C 30.506196 38.757843 43.560373                                                 
H 32.261077 36.958780 50.685186                                                 
H 33.534505 34.600862 43.594414                                                 
C 34.569290 36.384212 43.474318                                                 
H 37.789333 32.547325 28.900078                                                 
C 38.807214 34.340907 29.047657                                                 
H 40.411001 32.469026 36.239079                                                 
H 37.634081 32.238408 43.876516                                                 
C 38.646870 34.030096 43.699537                                                 
H 40.309973 32.327426 50.807712                                                 
H 46.564676 30.274223 29.047786                                                 
H 46.483785 29.987291 42.930359                                                 
H 25.785140 48.201216 35.807742                                                 
C 27.840957 48.216290 35.994074                                                 
H 25.819150 48.047419 51.003948                                                 
C 27.880672 48.053924 50.841673                                                 
H 25.849840 43.456055 35.828206                                                 
H 27.304710 45.994586 28.672760                                                 
C 27.910859 43.490061 35.968692                                                 
H 25.828703 43.367827 50.818745                                                 
H 27.108921 45.830491 43.467408                                                 
C 27.893715 43.368381 50.742223                                                 
H 25.805487 57.684164 36.162527                                                 
H 27.214851 59.945700 28.691547                                                 
C 27.870722 57.665586 36.255147                                                 
H 25.841476 57.404341 51.188070                                                 
H 27.124513 59.837814 43.574982                                                 
C 27.905488 57.407634 51.084558                                                 
H 25.770806 52.953769 35.820853                                                 
H 27.256849 55.252426 28.704257                                                 
C 27.826709 52.939919 36.011057                                                 
H 25.815692 52.721556 51.066821                                                 
H 27.120308 55.125709 43.506312                                                 
C 27.876681 52.719594 50.916859                                                 
C 29.375858 41.289706 28.796700                                                 
C 29.257266 41.179806 36.083345                                                 
C 30.659383 43.650406 28.889969                                                 
C 31.945972 41.148909 36.250710                                                 
C 33.368033 38.925623 29.133162                                                 
C 33.362566 38.859882 36.362642                                                 
C 34.715020 41.310804 29.288060                                                 
C 36.028691 38.859741 36.595724                                                 
C 29.367497 45.990480 28.818589                                                 
C 29.148202 45.820423 36.063086                                                 
C 30.662283 48.301857 28.817361                                                 
C 31.923114 45.854386 36.230804                                                 
C 33.376630 43.642808 29.180742                                                 
C 33.301192 43.520932 36.317952                                                 
C 34.720740 45.988566 29.382461                                                 
C 35.997538 43.543468 36.424162                                                 
C 29.173006 41.091139 43.556948                                                 
C 29.214767 41.098298 50.653599                                                 
C 30.452772 43.433871 43.273841                                                 
C 31.901470 41.041801 50.559018                                                 
C 33.166652 38.681787 43.349110                                                 
C 33.285393 38.753081 50.590611                                                 
C 34.551776 41.078096 43.214000                                                 
C 35.937502 38.728802 50.669252                                                 
C 29.176935 45.810030 43.405183                                                 
C 29.175181 45.744568 50.725646                                                 
C 30.504899 48.120602 43.519059                                                 
C 31.901968 45.734090 50.499436                                                 
C 33.205544 43.439190 43.245761                                                 
C 33.247446 43.408662 50.432422                                                 
C 34.559674 45.767696 43.301755                                                 
C 35.954661 43.411024 50.244423                                                 
C 41.466890 39.010603 29.504327                                                 
C 41.439979 38.913752 36.455456                                                 
C 42.801042 41.348969 29.754503                                                 
C 44.135377 38.902751 36.536762                                                 
C 41.348849 38.729192 43.337423                                                 
C 41.365829 38.758882 50.439669                                                 
C 42.693677 41.077200 43.333369                                                 
C 44.047515 38.740411 50.277031                                                 
C 37.428222 41.318188 29.493110                                                 
C 37.374145 41.224496 36.508707                                                 
C 38.753958 43.662355 29.749764                                                 
C 40.073803 41.227092 36.479996                                                 
C 37.254242 41.071768 43.245346                                                 
C 37.304674 41.094583 50.385095                                                 
C 38.613673 43.423363 43.307040                                                 
C 40.000703 41.077749 50.229148                                                 
C 41.458497 34.321258 29.106521                                                 
C 41.453288 34.254101 36.365296                                                 
C 42.822023 36.679762 29.320610                                                 
C 44.132377 34.200210 36.676844                                                 
C 41.378411 33.982473 43.505463                                                 
C 41.348883 34.110963 50.675802                                                 
C 42.728086 36.389859 43.329366                                                 
C 44.027119 34.056045 50.709587                                                 
C 37.429179 36.599719 29.142744                                                 
C 37.417888 36.578369 36.429639                                                 
C 38.787770 38.987111 29.365512                                                 
C 40.098403 36.553312 36.284000                                                 
C 37.231993 36.328904 43.499202                                                 
C 37.327591 36.442595 50.570554                                                 
C 38.614991 38.721459 43.366193                                                 
C 39.993963 36.396267 50.733867                                                 
C 41.429250 48.351990 30.080111                                                 
C 41.378088 48.246310 36.299189                                                 
C 42.767491 50.697725 30.151550                                                 
C 44.096732 48.247449 36.170808                                                 
C 41.312803 48.113065 43.551838                                                 
C 41.340911 48.072441 49.723159                                                 
C 42.677677 50.467466 43.623065                                                 
C 44.042384 48.071314 49.655122                                                 
C 29.317123 55.277606 28.880926                                                 
C 29.129636 55.331839 36.186819                                                 
C 30.583184 57.631838 28.956973                                                 
C 31.894769 55.315592 36.330244                                                 
C 33.363810 52.998170 29.213716                                                 
C 33.246287 52.952993 36.341570                                                 
C 34.671031 55.335977 29.423901                                                 
C 35.954392 52.946752 36.390102                                                 
C 29.188754 55.146015 43.489150                                                 
C 29.181404 55.048159 50.945341                                                 
C 30.478993 57.511042 43.497195                                                 
C 31.903941 55.065129 50.709586                                                 
C 33.240117 52.815694 43.458770                                                 
C 33.253571 52.720763 50.457788                                                 
C 34.575951 55.172306 43.512039                                                 
C 35.945182 52.733467 50.152667                                                 
C 37.381987 50.673174 29.776773                                                 
C 37.312967 50.580846 36.377089                                                 
C 38.714620 53.022224 29.895077                                                 
C 40.004808 50.586904 36.334878                                                 
C 37.278766 50.463966 43.461230                                                 
C 37.289224 50.405845 49.961642                                                 
C 38.621422 52.812491 43.537837                                                 
C 39.989147 50.408348 49.775688                                                 
C 41.447198 43.675696 29.897257                                                 
C 41.411893 43.571649 36.428123                                                 
C 42.787332 46.019241 30.061446                                                 
C 44.113482 43.570408 36.402468                                                 
C 41.323042 43.416845 43.381595                                                 
C 41.345997 43.405098 49.938082                                                 
C 42.670516 45.750147 43.516993                                                 
C 44.046827 43.399824 49.850759                                                 
C 29.360011 50.634314 28.959228                                                 
C 29.107656 50.580293 36.083234                                                 
C 30.638551 52.979749 28.856495                                                 
C 31.883060 50.586899 36.264321                                                 
C 33.389407 48.313396 29.179977                                                 
C 33.251930 48.209868 36.294960                                                 
C 34.700375 50.659904 29.415731                                                 
C 35.973870 48.231258 36.368013                                                 
C 29.206997 50.469431 43.350607                                                 
C 29.165000 50.372205 50.808976                                                 
C 30.515919 52.823342 43.446903                                                 
C 31.904061 50.384248 50.537965                                                 
C 33.229308 48.127417 43.396720                                                 
C 33.251235 48.069222 50.338795                                                 
C 34.570738 50.464002 43.422431                                                 
C 35.940869 48.071780 50.068752                                                 
C 37.400016 45.992879 29.722023                                                 
C 37.327858 45.903213 36.401318                                                 
C 38.733787 48.339432 29.897269                                                 
C 40.041387 45.904481 36.389662                                                 
C 37.269309 45.757240 43.336127                                                 
C 37.293110 45.741347 50.015262                                                 
C 38.614290 48.113287 43.446008                                                 
C 39.992163 45.737328 49.854108                                                 
C 45.511843 32.051611 29.097201                                                 
C 45.515835 31.915730 36.666044                                                 
C 46.895865 34.354022 29.206454                                                 
C 48.145222 31.908668 36.688900                                                 
H 49.175435 30.118074 36.661393                                                 
H 50.615225 32.636296 29.034951                                                 
C 45.507534 36.695780 29.344164                                                 
C 45.481248 36.561257 36.653341                                                 
C 46.844288 39.047904 29.502948                                                 
C 48.171025 36.549705 36.697107                                                 
C 49.571545 34.416149 29.173328                                                 
C 49.532558 34.179141 36.686828                                                 
C 50.912742 36.707064 29.138734                                                 
C 52.218830 34.217243 36.435538                                                 
C 45.440774 31.762958 43.054187                                                 
C 45.412521 31.754266 50.691491                                                 
C 46.807497 34.062879 43.011992                                                 
C 48.033211 31.734588 50.533788                                                 
H 49.058010 29.939700 50.542813                                                 
H 50.538983 32.373967 42.877646                                                 
C 45.432070 36.419815 43.162466                                                 
C 45.396293 36.395221 50.443227                                                 
C 46.758173 38.768706 43.186547                                                 
C 48.081018 36.375481 50.357284                                                 
C 49.487556 34.150853 42.969839                                                 
C 49.446813 34.009372 50.456054                                                 
C 50.813005 36.439260 42.963117                                                 
C 52.126749 34.041632 50.381200                                                 
H 53.226710 32.418862 36.288223                                                 
H 53.149711 32.248238 50.460237                                                 
C 57.619464 39.112265 29.179035                                                 
C 57.707914 38.868814 36.273658                                                 
C 58.992585 41.416086 29.028675                                                 
C 60.371495 38.953116 36.421357                                                 
C 57.560142 38.824596 43.310170                                                 
C 57.544461 38.697569 50.708011                                                 
C 58.973863 41.119553 43.311829                                                 
C 60.215974 38.776236 50.883331                                                 
C 45.487316 46.032020 30.088006                                                 
C 45.461369 45.903592 36.278933                                                 
C 46.831292 48.376207 30.160427                                                 
C 48.177794 45.897042 36.263265                                                 
C 49.542095 43.719968 29.841172                                                 
C 49.525669 43.573320 36.362583                                                 
C 50.889311 46.060356 29.934239                                                 
C 52.245066 43.570639 36.360312                                                 
C 45.396199 45.767297 43.569029                                                 
C 45.394697 45.733668 49.706332                                                 
C 46.745217 48.126977 43.653502                                                 
C 48.096539 45.732512 49.725362                                                 
C 49.453270 43.451915 43.418103                                                 
C 49.445038 43.395043 49.865255                                                 
C 50.816224 45.796902 43.540941                                                 
C 52.141526 43.397620 50.013005                                                 
C 53.586064 41.427579 29.355941                                                 
C 53.597482 41.233352 36.404278                                                 
C 54.934761 43.750913 29.485917                                                 
C 56.320459 41.246571 36.398960                                                 
C 53.517004 41.162725 43.250413                                                 
C 53.485783 41.059259 50.249828                                                 
C 54.893623 43.486415 43.327973                                                 
C 56.189677 41.065296 50.522095                                                 
H 57.320476 34.777720 35.698079                                                 
H 58.655981 37.325486 29.056350                                                 
H 57.225732 34.611095 50.667274                                                 
H 58.573097 37.020515 43.463802                                                 
C 45.495267 41.366179 29.758343                                                 
C 45.482027 41.233519 36.494866                                                 
C 46.843443 43.703924 29.930009                                                 
C 48.177032 41.231414 36.488851                                                 
C 49.532777 39.065062 29.404404                                                 
C 49.525822 38.891251 36.574710                                                 
C 50.892243 41.395388 29.557643                                                 
C 52.236198 38.877284 36.448524                                                 
C 45.388874 41.094490 43.320490                                                 
C 45.399151 41.064874 49.998796                                                 
C 46.753251 43.435831 43.433604                                                 
C 48.093373 41.059756 49.978382                                                 
C 49.459941 38.801324 43.113861                                                 
C 49.439933 38.719435 50.171984                                                 
C 50.813520 41.127181 43.258014                                                 
C 52.142092 38.713129 50.267136                                                 
C 53.589876 36.773364 29.227946                                                 
C 53.595583 36.481287 36.311855                                                 
C 54.958314 39.064016 29.083194                                                 
C 56.297852 36.545798 36.003247                                                 
C 53.493979 36.508511 43.285672                                                 
C 53.513844 36.325286 50.442992                                                 
C 54.873035 38.822689 43.230818                                                 
C 56.184921 36.392262 50.561351                                                 
H 61.424630 37.176561 36.353895                                                 
H 62.701489 39.687329 28.896123                                                 
H 61.251726 36.989811 50.967128                                                 
H 62.666022 39.378370 43.426121                                                 
H 28.183613 61.742571 36.523402                                                 
H 28.209088 61.460179 51.264871                                                 
C 29.276353 59.973408 28.827342                                                 
C 29.208671 59.948224 36.439978                                                 
C 30.567391 62.277799 28.906612                                                 
C 31.875664 59.994640 36.514753                                                 
C 33.302086 57.667534 29.240447                                                 
C 33.255447 57.641560 36.424104                                                 
C 34.623283 60.014713 29.294623                                                 
C 35.953642 57.621171 36.414113                                                 
H 29.522282 64.056115 28.787377                                                 
H 32.272376 64.099752 36.406608                                                 
C 33.251471 62.381825 29.041590                                                 
C 33.283975 62.295563 36.336744                                                 
C 34.623273 64.689712 29.008051                                                 
C 35.971504 62.307184 36.374652                                                 
C 29.188721 59.844884 43.563454                                                 
C 29.227036 59.663673 51.129099                                                 
C 30.502760 62.154673 43.653834                                                 
C 31.906946 59.722984 51.028401                                                 
C 33.215764 57.509887 43.530230                                                 
C 33.253770 57.386985 50.719937                                                 
C 34.556491 59.856556 43.608224                                                 
C 35.957628 57.397906 50.432962                                                 
H 29.452532 63.933821 43.693788                                                 
H 32.273849 63.809147 51.269667                                                 
C 33.170655 62.244726 43.632118                                                 
C 33.284169 62.038564 50.875822                                                 
C 34.570597 64.583145 43.502163                                                 
C 35.957925 62.066296 50.828415                                                 
C 41.391476 57.710215 29.883075                                                 
C 41.377040 57.626476 36.321740                                                 
C 42.736373 60.044659 29.721499                                                 
C 44.097195 57.632734 36.311181                                                 
C 41.334399 57.518259 43.593624                                                 
C 41.340560 57.414517 49.987877                                                 
C 42.696501 59.867936 43.461812                                                 
C 44.041331 57.420537 49.864762                                                 
C 37.335575 60.033034 29.509102                                                 
C 37.330794 59.953166 36.425500                                                 
C 38.683109 62.379353 29.374099                                                 
C 40.034164 59.978465 36.402511                                                 
C 37.277824 59.868434 43.595202                                                 
C 37.310773 59.714297 50.503928                                                 
C 38.641719 62.223877 43.531201                                                 
C 39.995712 59.739652 50.279011                                                 
C 41.408069 53.032524 30.075506                                                 
C 41.369196 52.936937 36.288285                                                 
C 42.748602 55.379647 30.054650                                                 
C 44.092890 52.934020 36.269478                                                 
C 41.317448 52.818140 43.622545                                                 
C 41.338439 52.745176 49.754156                                                 
C 42.675827 55.175643 43.713012                                                 
C 44.039047 52.748292 49.665784                                                 
C 37.358705 55.358432 29.730316                                                 
C 37.288659 55.271033 36.389652                                                 
C 38.689455 57.701011 29.751489                                                 
C 40.017053 55.281019 36.319599                                                 
C 37.272535 55.177132 43.546782                                                 
C 37.292511 55.070012 50.137264                                                 
C 38.617439 57.518943 43.571698                                                 
C 39.987708 55.079160 49.924237                                                 
C 41.365679 67.071881 29.024738                                                 
C 41.370373 66.946369 36.580700                                                 
C 42.766434 69.357805 28.951800                                                 
C 44.054717 67.014425 36.514885                                                 
C 41.360069 66.927615 43.222548                                                 
C 41.356804 66.712152 50.727824                                                 
C 42.753130 69.196541 43.141416                                                 
C 44.031482 66.767948 50.635758                                                 
H 37.662337 68.825962 28.935514                                                 
H 40.324451 68.726617 36.695706                                                 
H 37.663799 68.699131 43.489198                                                 
H 40.324501 68.495605 50.908104                                                 
C 41.382883 62.377396 29.450224                                                 
C 41.392737 62.292552 36.462326                                                 
C 42.739568 64.718705 29.199671                                                 
C 44.089441 62.306820 36.405941                                                 
C 41.352367 62.209301 43.383027                                                 
C 41.360700 62.070428 50.415369                                                 
C 42.713242 64.552385 43.233395                                                 
C 44.044513 62.080078 50.253150                                                 
H 33.587368 66.465500 28.805686                                                 
H 33.536362 66.364588 43.333557                                                 
C 37.300804 64.755569 29.094232                                                 
C 37.351232 64.609801 36.355135                                                 
C 38.687016 67.036389 29.068112                                                 
C 40.040442 64.665234 36.599700                                                 
C 37.285467 64.633080 43.526191                                                 
C 37.323675 64.370296 50.777830                                                 
C 38.672652 66.894753 43.458497                                                 
C 40.012672 64.429329 50.765178                                                 
C 61.676529 41.481176 28.999611                                                 
C 61.682086 41.265409 36.610651                                                 
C 62.992856 43.750600 29.059111                                                 
H 63.745952 41.268121 36.690490                                                 
C 61.717195 46.104926 29.137094                                                 
C 61.663139 45.976314 36.518131                                                 
C 63.018590 48.447701 29.219358                                                 
H 63.733460 46.009257 36.385660                                                 
H 65.059481 43.753160 29.006644                                                 
C 61.636280 41.167101 43.408024                                                 
C 61.504819 41.056069 50.984568                                                 
C 62.971958 43.461366 43.547176                                                 
H 63.566316 41.076201 51.151605                                                 
C 61.710530 45.810335 43.558015                                                 
C 61.521637 45.755755 50.825880                                                 
C 63.052335 48.195927 43.637129                                                 
H 63.558667 45.768104 51.225724                                                 
H 65.037145 43.441528 43.644167                                                 
C 61.667940 55.469805 29.258830                                                 
C 61.608671 55.310999 36.745834                                                 
C 62.933007 57.840963 29.193181                                                 
H 63.677742 55.321913 36.758934                                                 
H 65.055846 53.166216 29.158270                                                 
C 61.652293 55.238805 43.138693                                                 
C 61.533689 55.075873 50.634746                                                 
C 62.913937 57.583474 43.084615                                                 
H 63.591334 55.071990 50.838165                                                 
H 65.038126 52.932672 43.492780                                                 
C 61.724865 50.789512 29.285734                                                 
C 61.614060 50.657310 36.382518                                                 
C 62.992904 53.143559 29.275418                                                 
H 65.082146 48.449437 29.122912                                                 
C 61.706179 50.568991 43.509172                                                 
C 61.511813 50.417225 50.745849                                                 
C 62.971908 52.897617 43.391660                                                 
H 65.123629 48.201825 43.631100                                                 
H 41.728003 71.145014 28.912299                                                 
H 44.397749 71.082611 36.603605                                                 
H 41.729367 70.993371 43.128194                                                 
H 44.378672 70.844778 50.818400                                                 
C 45.381134 69.353035 28.886255                                                 
C 45.436509 69.301016 36.494375                                                 
H 46.423894 71.136662 28.796743                                                 
C 48.083236 69.321622 36.298179                                                 
C 49.452817 67.027685 29.025114                                                 
C 49.494748 67.042213 36.221129                                                 
H 50.480017 68.817952 28.890915                                                 
C 52.196682 66.979224 36.199549                                                 
H 49.109305 71.112971 36.256072                                                 
C 45.382681 69.186093 43.125832                                                 
C 45.423757 69.063685 50.753231                                                 
H 46.431604 70.968920 43.068016                                                 
C 48.052092 69.067399 50.810761                                                 
C 49.446578 66.844167 43.450108                                                 
C 49.462418 66.771118 50.730838                                                 
H 50.493496 68.629611 43.467860                                                 
C 52.113719 66.737923 50.810320                                                 
H 49.087498 70.851700 50.922761                                                 
H 57.269083 66.424304 36.499406                                                 
H 57.193650 66.220609 50.778627                                                 
H 53.224646 68.764392 36.073746                                                 
H 53.136392 68.526161 50.989158                                                 
C 57.539750 62.423642 29.360102                                                 
C 57.588013 62.351578 36.780464                                                 
H 58.560789 64.216181 29.209053                                                 
C 60.270049 62.288609 36.789738                                                 
C 57.512156 62.178757 43.212462                                                 
C 57.545039 62.149951 50.517655                                                 
H 58.532114 63.978633 43.157007                                                 
C 60.238973 62.068012 50.599312                                                 
C 53.496840 64.717017 29.180087                                                 
C 53.601590 64.682734 36.461841                                                 
C 56.232713 64.638586 36.597396                                                 
C 53.472704 64.494872 43.369513                                                 
C 53.484327 64.477315 50.663313                                                 
C 56.165866 64.434723 50.624565                                                 
C 61.611249 60.087185 29.197251                                                 
C 61.583878 60.004165 36.792181                                                 
H 62.620464 61.890230 29.108392                                                 
H 63.648885 59.997005 36.768264                                                 
H 64.999264 57.847784 29.110851                                                 
H 61.295195 64.081435 36.745114                                                 
C 61.579954 59.850047 42.987784                                                 
C 61.540640 59.776986 50.637460                                                 
H 62.589108 61.653627 42.929118                                                 
H 63.601958 59.762333 50.768336                                                 
H 64.981316 57.599635 43.126011                                                 
H 61.270451 63.852969 50.724336                                                 
H 63.548694 50.422543 51.147270                                                 
H 36.298297 34.652085 50.690976                                                 
H 36.308260 66.133256 51.191612                                                 
H 27.136227 50.481328 43.422038                                                 
H 54.509179 66.286338 43.387198                                                 
H 63.690013 50.658272 36.291686                                                 
H 54.538593 34.715823 43.370655                                                 
H 36.388629 34.781243 36.339195                                                 
H 36.303677 66.392714 36.438373                                                 
H 54.519805 66.506654 29.018889                                                 
H 27.298074 50.626277 28.789013                                                 
H 54.629321 34.989053 29.099255                                                 
Li 58.908509 60.125385 33.254519                                                
Li 30.280817 43.449126 47.160320                                                
Li 44.066828 34.101441 32.688676                                                
Li 46.867087 67.063517 47.136331                                                
Li 60.240715 43.185709 46.948892                                                
Li 31.316831 59.957495 32.539967                                                
Li 51.288016 64.364174 32.904112                                                
Li 40.192375 65.179842 32.687845                                                
Li 60.212264 53.242235 46.772280                                                
Li 30.108033 52.827622 47.299574                                                
Li 35.560907 38.928000 46.815659                                                
Li 55.327703 38.620229 47.055712                                                
Li 36.125464 38.567899 32.715379                                                
Li 50.442269 36.290448 33.044485                                                
Li 40.013288 36.412262 46.893527                                                
Li 50.685100 36.019404 46.863987                                                
Li 54.816298 62.622064 47.003269                                                
Li 40.356073 64.768898 46.861818                                                
Li 30.609690 53.261128 32.716246                                                
Li 30.617704 48.015457 32.672955                                                
Li 31.624650 59.705708 47.096217                                                
Li 60.659767 53.397533 32.864050                                                
Li 54.827603 38.954103 32.900270                                                
Li 60.688555 48.111130 32.728991                                                
Li 46.469431 67.293246 32.857585                                                
Li 59.367426 59.848899 46.934076                                                
Li 31.466380 41.411556 32.422941                                                
Li 44.679336 33.698153 46.745439                                                
Li 59.480123 41.432504 32.957148                                                
Li 35.856847 62.341323 40.149662                                                
Li 30.275833 47.930315 39.622142                                                
Li 34.907496 63.996268 47.396884                                                
Li 50.834562 64.931284 39.765491                                                
Li 39.600348 35.569550 40.029511                                                
Li 62.256252 48.493095 39.882539                                                
Li 62.380306 48.135887 47.411043                                                
Li 55.964521 37.008649 39.885125                                                
Li 30.168558 53.186626 39.638700                                                
Li 44.090341 48.165275 40.121941                                                
Li 42.710606 55.334729 39.774747                                                
Li 35.651974 62.805125 32.599224                                                
Li 31.303105 40.729895 39.992582                                                
Li 51.667809 48.293361 40.075008                                                
Li 56.490960 64.239720 39.743640                                                
%ENDBLOCK POSITIONS_ABS                                                         

--------------------------------------------------------------------------------
-------------------------------- END INPUT FILE --------------------------------
--------------------------------------------------------------------------------


 
<<<<<<<<<<<<<<<<<<<<<<<<<<<<<<<<< Full system >>>>>>>>>>>>>>>>>>>>>>>>>>>>>>>>>>
<<<<<<<<<<<<<<<<<<<<<<<<<<< PAW Dataset information >>>>>>>>>>>>>>>>>>>>>>>>>>>
File: ~/pp/paw/c_pbe_abinit.paw; rc = 1.25 bohr; shape type =  3; rshape = 1.25 bohr;
  Atomic number:  6;  ionic charge:  4.000000
    Partial Wave 1: l = 0
    Partial Wave 2: l = 0
    Partial Wave 3: l = 1
    Partial Wave 4: l = 1
  Core charge supplied for Nonlinear Core Corrections
File: ~/pp/paw/h_pbe_abinit.paw; rc = 0.90 bohr; shape type =  3; rshape = 0.90 bohr;
  Atomic number:  1;  ionic charge:  1.000000
    Partial Wave 1: l = 0
    Partial Wave 2: l = 0
File: ~/pp/paw/li_pbe_abinit.paw; rc = 1.42 bohr; shape type =  3; rshape = 1.42 bohr;
  Atomic number:  3;  ionic charge:  3.000000
    Partial Wave 1: l = 0
    Partial Wave 2: l = 0
    Partial Wave 3: l = 0
    Partial Wave 4: l = 1
    Partial Wave 5: l = 1
<<<<<<<<<<<<<<<<<<<<<<<<<<<<<<<<<<<<<<< >>>>>>>>>>>>>>>>>>>>>>>>>>>>>>>>>>>>>>>

-------------------------- Atom counting information ---------------------------
Symbol    Natoms    Nngwfs    Nprojs
  C        484      1936      3872
  H        108       108       216
  Li        44       220       396
.......   ......    ......    ......
Totals:    636      2264      4484
--------------------------------------------------------------------------------

=============================== PSINC grid sizes ===============================
                      Simulation cell:  189 x 189 x 189
                              FFT-box:  117 x 117 x 117
                                  PPD:    7 x   7 x   1
Grid space d1=  0.499927596032a0 (KE cutoff=  30.39413Eh = 827.06648eV)
Grid space d2=  0.499927596032a0 (KE cutoff=  30.39413Eh = 827.06648eV)
Grid space d3=  0.499927596032a0 (KE cutoff=  30.39413Eh = 827.06648eV)
================================================================================
  
WARNING in cell_grid_distribute:
Average of less than one 23-slab per node, so workload cannot be
equally balanced between nodes.

********************* Fourier parallelisation information **********************
       Coarse grid (whole simulation cell) dimensions:    189   189   189
          Real-space ('12') slabs/node (min max mean):      1     2     1
         Recip-space ('23') slabs/node (min max mean):      0     1     0
********************************************************************************

********************* Fourier parallelisation information **********************
       Double grid (whole simulation cell) dimensions:    378   378   378
          Real-space ('12') slabs/node (min max mean):      2     3     2
         Recip-space ('23') slabs/node (min max mean):      1     2     1
********************************************************************************

Atom SCF Calculation for C  : Z (AE atom) =   6 : Z (PS atom) =   4
Config String: 2s2 2p2
Orbitals (num,occ):  2     2.00 2.00
Orbitals   (num,l):  2        0    1
Real-space Grid (nr,dr,rmax): 1377    0.0065406977    9.0000000000
Spherical Bessel Basis (nsws,lmax,cutoff):   37    2  183.0099912382
Confining potential (l,width,scale):  0    3.0000000000  100.0000000000
Confining potential (l,width,scale):  1    3.0000000000  100.0000000000
  1         -5.4350126632   -1.2715272878    4.5135247139   -1.5681949477
  2         -5.3876836850   -1.3562195125    4.4235426751   -1.5380057521
  3         -5.3928844498   -1.3758175853    4.4021699684   -1.5318377811
  4         -5.3988962903   -1.3800385428    4.3975423583   -1.5307324410
  5         -5.4018428823   -1.3823489590    4.3950111904   -1.5301555648
  6         -5.4033571720   -1.3835805046    4.3936635548   -1.5298576834
  7         -5.4041480647   -1.3842324820    4.3929512000   -1.5297032953
  8         -5.4045641108   -1.3845769138    4.3925755232   -1.5296229456
  9         -5.4047838258   -1.3847587737    4.3923775340   -1.5295810042
 10         -5.4049001347   -1.3848548089    4.3922731819   -1.5295590658
 11         -5.4049618018   -1.3849055476    4.3922181562   -1.5295475724
 12         -5.4049945351   -1.3849323732    4.3921891206   -1.5295415432
 13         -5.4050119258   -1.3849465673    4.3921737867   -1.5295383767
 14         -5.4050211723   -1.3849540841    4.3921656816   -1.5295367119
 15         -5.4050260920   -1.3849580684    4.3921613935   -1.5295358358
 16         -5.4050287113   -1.3849601822    4.3921591228   -1.5295353742
 17         -5.4050301068   -1.3849613045    4.3921579192   -1.5295351307
 18         -5.4050308507   -1.3849619010    4.3921572806   -1.5295350022
 19         -5.4050312476   -1.3849622183    4.3921569415   -1.5295349343
 20         -5.4050314594   -1.3849623873    4.3921567612   -1.5295348984
 21         -5.4050315725   -1.3849624773    4.3921566653   -1.5295348794
 22         -5.4050316330   -1.3849625253    4.3921566143   -1.5295348693
Atom SCF converged after  22 iterations to a total energy of     -5.40503163

Atom SCF Calculation for H  : Z (AE atom) =   1 : Z (PS atom) =   1
Config String: 1s1
Orbitals (num,occ):  1     1.00
Orbitals   (num,l):  1        0
Real-space Grid (nr,dr,rmax): 1377    0.0065406977    9.0000000000
Spherical Bessel Basis (nsws,lmax,cutoff):   37    1  183.0099912382
Confining potential (l,width,scale):  0    3.0000000000  100.0000000000
  1         -0.3605254152   -0.2399954029    0.2820952946   -0.2424203210
  2         -0.4156854077   -0.2398249290    0.2871789324   -0.2464796203
  3         -0.4412552402   -0.2379720642    0.2899127187   -0.2499011370
  4         -0.4517265951   -0.2371980236    0.2908966173   -0.2514141636
  5         -0.4557775773   -0.2369735141    0.2911607883   -0.2519713623
  6         -0.4573363459   -0.2369240355    0.2912108681   -0.2521663171
  7         -0.4579443228   -0.2369187864    0.2912112833   -0.2522344454
  8         -0.4581858602   -0.2369215483    0.2912049187   -0.2522587615
  9         -0.4582834939   -0.2369242589    0.2912002081   -0.2522677042
 10         -0.4583235236   -0.2369258837    0.2911975892   -0.2522710965
 11         -0.4583401154   -0.2369267223    0.2911962825   -0.2522724192
 12         -0.4583470483   -0.2369271266    0.2911956643   -0.2522729467
 13         -0.4583499624   -0.2369273145    0.2911953803   -0.2522731607
 14         -0.4583511926   -0.2369274000    0.2911952521   -0.2522732486
 15         -0.4583517136   -0.2369274385    0.2911951948   -0.2522732850
 16         -0.4583519349   -0.2369274556    0.2911951693   -0.2522733002
 17         -0.4583520290   -0.2369274632    0.2911951581   -0.2522733066
Atom SCF converged after  17 iterations to a total energy of     -0.45835203

Atom SCF Calculation for Li : Z (AE atom) =   3 : Z (PS atom) =   3
Config String: 1s2 2s1 2p0
Orbitals (num,occ):  3     2.00 1.00 0.00
Orbitals   (num,l):  3        0    0    1
Real-space Grid (nr,dr,rmax): 1377    0.0065406977    9.0000000000
Spherical Bessel Basis (nsws,lmax,cutoff):   37    2  183.0099912382
Confining potential (l,width,scale):  0    3.0000000000  100.0000000000
Confining potential (l,width,scale):  1    3.0000000000  100.0000000000
  1         -6.0640888065   -4.6655401716    2.5388576516   -0.9989538799
  2         -6.9627542978   -4.0954079129    2.9808988108   -1.1965571426
  3         -7.2692687601   -3.8889996707    3.2029735703   -1.3193883705
  4         -7.3784440298   -3.8322099748    3.2868571989   -1.3711018151
  5         -7.4170278248   -3.8191968371    3.3144974220   -1.3911175539
  6         -7.4303549880   -3.8172386945    3.3228486489   -1.3986896266
  7         -7.4348052089   -3.8175483495    3.3251259310   -1.4015352495
  8         -7.4362242328   -3.8180607346    3.3256233205   -1.4026016384
  9         -7.4366459715   -3.8184145665    3.3256561549   -1.4029998726
 10         -7.4367560626   -3.8186169740    3.3256001574   -1.4031477379
 11         -7.4367765260   -3.8187239825    3.3255481763   -1.4032021548
 12         -7.4367751741   -3.8187782620    3.3255144587   -1.4032219192
 13         -7.4367707398   -3.8188051288    3.3254952336   -1.4032289600
 14         -7.4367680349   -3.8188156035    3.3254870176   -1.4032309087
 15         -7.4367661982   -3.8188217406    3.3254819951   -1.4032318132
 16         -7.4367650112   -3.8188253257    3.3254789583   -1.4032322224
 17         -7.4367642682   -3.8188274151    3.3254771375   -1.4032324006
 18         -7.4367638134   -3.8188286307    3.3254760529   -1.4032324736
 19         -7.4367635392   -3.8188293370    3.3254754103   -1.4032325004
 20         -7.4367633760   -3.8188297469    3.3254750310   -1.4032325080
 21         -7.4367632796   -3.8188299846    3.3254748079   -1.4032325082
Atom SCF converged after  21 iterations to a total energy of     -7.43676328

Determining parallel strategy ...
... using space-filling curve
... NGWF load balancing: max     17;  min     12;  average     14
... Projector load balancing: max     34;  min     24;  average     28
... done
Calculating Ewald energy ...
              Ewald: real-space energy =   36218.963877
        Ewald: reciprocal-space energy =   36559.014133
         Ewald: (sum_charge)**2 Energy =    2913.621724
         Ewald: (sum_charge**2) Energy =     255.989758
                          Ewald Energy =   69608.366528
======================= Empirical dispersion information =======================
Model : Grimme D2
Dispersion Correction Energy: -0.24187220E+01 Hartree
================================================================================
Basis initialisation ...... NGWF spheres initialised
... Projector spheres initialised
... NGWF tight boxes initialised
... Projector tight boxes initialised
... Tight-boxes gathered
... NGWF basis size (local,global):     285222  45665784
... PAW projector initialisation
... done

============================= Charge Augmentation ==============================
                           Aug box size:   13 x  13 x  13
================================================================================

========================== Sparse matrix information ===========================
                        Overlap matrix filling:  36.09%
                        Density kernel filling: 100.00%
              NGWF-Proj overlap matrix filling:  10.18%
                    Aug Overlap matrix filling:  41.04%
                    Hamiltonian matrix filling:  41.04%
                  NGWF diagonal matrix filling:   0.17%
                             KS matrix filling: 100.00% 
                           KSKS matrix filling: 100.00% 
================================================================================

Sparse matrix initialisation ... done
NGWF initialisation ...... done
============ Calculation of NGWF S^-1 using Hotelling algorithm ================ 
         Iteration  |  Frobenius norm and Maximum abs value    (of I-S*S_n^-1)   
               1       0.47264804E+02     0.99664584E+00
               2       0.46965995E+02     0.99331251E+00
               3       0.46416100E+02     0.98670920E+00
               4       0.45473032E+02     0.97373910E+00
               5       0.44022402E+02     0.94864927E+00
               6       0.42058233E+02     0.90132136E+00
               7       0.39633420E+02     0.81557713E+00
               8       0.36785567E+02     0.78862242E+00
               9       0.33698281E+02     0.76773974E+00
              10       0.30666025E+02     0.74820943E+00
              11       0.27519554E+02     0.73072899E+00
              12       0.23620250E+02     0.69990236E+00
              13       0.18549437E+02     0.64531216E+00
              14       0.12554598E+02     0.55353239E+00
              15       0.70678353E+01     0.47552542E+00
              16       0.38308522E+01     0.40948412E+00
              17       0.24181957E+01     0.31068349E+00
              18       0.14089133E+01     0.18249943E+00
              19       0.58017532E+00     0.79386822E-01
              20       0.12892346E+00     0.21135407E-01
              21       0.83357316E-02     0.15042451E-02
              22       0.39182135E-04     0.76469476E-05
              23       0.90937468E-09     0.19787194E-09
              24       0.66630223E-13     0.53290705E-14
================================================================================
Calculating core density ...
================================= Core Density =================================
               Core den box size:   21 x  21 x  21
================================================================================
 ... done
Up spin density kernel initialisation ...... done
Down spin density kernel initialisation ...... done

Writing density kernel to file "44/592nano.dkn" ... done

>>> Optimising kernel for current NGWFs:

--------------------------- Ensemble-DFT optimisation --------------------------
Running ScaLAPACK on  160 processor(s).

--------------------------------------------------------------------------------
  Iter                              Commutator    Free_energy(A=E-TS)     DeltaA
#    0                          0.001266241160   -3149.06938890653282  -3.15E+03

Step                       =       0.381966011250
Energy                     =   -3149.033256297785
Entropy (-TS)              =      -0.036132609148
Free energy (A=E-TS)       =   -3149.069388906533
Est. 0K Energy 0.5*(E+A)   =   -3149.051322602159
Residual Non-orthogonality =       0.000000000000
Residual N_electrons       =       0.000000000399

Spin          Integrated_Ne            Fermi_level     Delta_Fermi_level
   1      1088.000000000875        -0.228172173592             -2.28E-01
   2      1088.000000000875        -0.228172173592             -2.28E-01

                           Spin 1           |                 Spin 2           |
     Orb |    H-eigenvalues     Occupancies |    H-eigenvalues     Occupancies |
       1 |    -1.8916448104    1.0000000000 |    -1.8916448104    1.0000000000 | 
                          ------                             ------
    1084 |    -0.2355717459    0.9118632334 |    -0.2355717459    0.9118632334 | 
    1085 |    -0.2334739841    0.8421322518 |    -0.2334739841    0.8421322518 | 
    1086 |    -0.2318325853    0.7605808529 |    -0.2318325853    0.7605808529 | 
    1087 |    -0.2300446593    0.6436597596 |    -0.2300446593    0.6436597596 | 
    1088 |    -0.2286223756    0.5354809005 |    -0.2286223756    0.5354809005 | 
                 - Gap at zero temperature - |     - Gap at zero temperature -
    1089 |    -0.2280121826    0.4873723935 |    -0.2280121826    0.4873723935 | 
    1090 |    -0.2271274071    0.4182622320 |    -0.2271274071    0.4182622320 | 
    1091 |    -0.2237980683    0.2008110060 |    -0.2237980683    0.2008110060 | 
    1092 |    -0.2231168953    0.1684950759 |    -0.2231168953    0.1684950759 | 
    1093 |    -0.2171151584    0.0295542086 |    -0.2171151584    0.0295542086 | 
                          ------                             ------
    2264 |     0.5558399548    0.0000000000 |     0.5558399548    0.0000000000 | 

                       |  Abs_value |  Threshold | Converged
     Delta_Free_energy |   3.15E+03 |   1.00E-06 |        No
     Delta_Energy      |   3.15E+03 |   1.00E-04 |        No
     Delta_Entropy     |   3.61E-02 |   1.00E-04 |        No
     Commutator        |   1.27E-03 |   1.00E-05 |        No
     Delta_Fermi_level |   2.28E-01 |   1.00E-03 |        No

  Line search of the free energy minimum:
  Step_type        Step             Free_energy   Predicted_free_energy
.   Initial    0.000000    -3149.06938890653282
.    Trial1    0.381966    -3149.71330277758398
.    Trial2    0.618034    -3145.14731520614987
. Quadratic    0.215757    -3150.12737053410592    -3150.65321471842663

--------------------------------------------------------------------------------
  Iter                              Commutator    Free_energy(A=E-TS)     DeltaA
#    1                          0.000751036947   -3150.12737053410592  -1.06E+00

Step                       =       0.215756955870
Energy                     =   -3150.089279192200
Entropy (-TS)              =      -0.038091341853
Free energy (A=E-TS)       =   -3150.127370534106
Est. 0K Energy 0.5*(E+A)   =   -3150.108324863153
Residual Non-orthogonality =       0.000000000000
Residual N_electrons       =      -0.000000000053

Spin          Integrated_Ne            Fermi_level     Delta_Fermi_level
   1      1088.000000000660        -0.215588530721              1.26E-02
[...]
 C    25 -- C   249       -0.08      0.00      5.43737
 C   429 -- C   443       -0.06     -0.00      5.43748
 C    39 -- C   516       -0.07     -0.00      5.43748
 C    45 -- C   359       -0.08     -0.00      5.43764
 C   227 -- C   309       -0.08     -0.00      5.43838
 C   440 -- C   488       -0.08     -0.00      5.43839
 C   198 -- C   204       -0.08      0.00      5.43842
 C   316 -- C   390       -0.08      0.00      5.43865
 C   185 -- C   235       -0.08      0.00      5.43894
 C    19 -- C   451       -0.08     -0.00      5.43927
 C    96 -- C   567       -0.07     -0.00      5.43950
 C   477 -- C   485       -0.08      0.00      5.43991
 C   217 -- C   223       -0.08     -0.00      5.44015
 C    29 -- C   355       -0.08     -0.00      5.44020
 C    99 -- C   521       -0.08     -0.00      5.44051
 H   141 -- Li  605       -0.02     -0.00      5.44052
 C    38 -- C   104       -0.08      0.00      5.44055
 C    44 -- C    58       -0.08     -0.00      5.44058
 C   444 -- C   492       -0.08     -0.00      5.44059
 C   357 -- C   367       -0.09     -0.00      5.44121
 C   445 -- C   467       -0.07      0.00      5.44149
 C    51 -- C   521       -0.08     -0.00      5.44165
 C   413 -- C   441       -0.07      0.00      5.44181
 C   368 -- C   394       -0.08     -0.00      5.44372
 C    72 -- C   560       -0.08      0.00      5.44446
 C    52 -- C   338       -0.08      0.00      5.44551
 C   261 -- C   427       -0.08      0.00      5.44711
 C    21 -- C    63       -0.08     -0.00      5.44712
 C   261 -- C   263       -0.08     -0.00      5.44716
 H   577 -- Li  618       -0.02     -0.00      5.44757
 C    37 -- C   508       -0.06     -0.00      5.44757
 C   466 -- C   538       -0.08     -0.00      5.44803
 C   409 -- C   485       -0.07      0.00      5.44839
 C   182 -- C   188       -0.08     -0.00      5.44846
 C   199 -- C   241       -0.07     -0.00      5.44851
 C   253 -- C   413       -0.08     -0.00      5.44879
 C   442 -- C   456       -0.08     -0.00      5.44958
 C     2 -- C   270       -0.08      0.00      5.44966
 C   333 -- C   365       -0.08      0.00      5.45025
 C    34 -- C    52       -0.08     -0.00      5.45103
 C   181 -- C   183       -0.08     -0.00      5.45156
 C   231 -- C   323       -0.08      0.00      5.45206
 C   256 -- C   290       -0.08     -0.00      5.45300
 H   146 -- Li  603       -0.03      0.00      5.45343
 C   258 -- C   288       -0.08     -0.00      5.45439
 C   197 -- C   295       -0.07     -0.00      5.45469
 C    17 -- C   281       -0.07     -0.00      5.45470
 H   152 -- Li  626       -0.02     -0.00      5.45547
 C   406 -- C   440       -0.07     -0.00      5.45602
 C    34 -- C   100       -0.08      0.00      5.45686
 C   343 -- C   365       -0.08     -0.00      5.45738
 C    39 -- C   506       -0.07     -0.00      5.46009
 C   201 -- C   239       -0.07      0.00      5.46074
 Li  605 -- Li  619       -0.16      0.00      5.46617
 H   398 -- Li  621       -0.02     -0.00      5.46944
 C   427 -- C   445       -0.06     -0.00      5.47203
 H   412 -- Li  622       -0.03     -0.00      5.47275
 C   197 -- C   199       -0.07      0.00      5.47294
 C   338 -- C   380       -0.06      0.00      5.47452
 C    80 -- C   538       -0.06     -0.00      5.47994
 C    55 -- C   525       -0.07     -0.00      5.48529
 C   252 -- C   286       -0.06     -0.00      5.48651
 C    76 -- C   564       -0.06     -0.00      5.48714
 C   231 -- C   241       -0.06     -0.00      5.48761
 H   590 -- Li  599       -0.02      0.00      5.48905
 C   364 -- C   390       -0.06     -0.00      5.49003
 H   592 -- Li  615       -0.02      0.00      5.49624
 C   188 -- C   286       -0.05     -0.00      5.49902
 C   233 -- C   239       -0.06      0.00      5.49905
 C   364 -- Li  629       -0.07      0.00      5.49909
 C   254 -- C   284       -0.06      0.00      5.50019
 H   474 -- Li  610       -0.03     -0.00      5.50107
 C   423 -- C   489       -0.06     -0.00      5.50175
 C   190 -- C   284       -0.06      0.00      5.50298
 H   589 -- Li  622       -0.02     -0.00      5.51245
 H   561 -- Li  609       -0.02     -0.00      5.51736
 H   138 -- Li  620       -0.02     -0.00      5.52448
 Li  610 -- Li  624       -0.12     -0.00      5.52904
 H   589 -- Li  600       -0.01     -0.00      5.53710
 C    55 -- Li  627       -0.08      0.00      5.54304
 H   584 -- Li  623       -0.02      0.00      5.55014
 H   584 -- Li  630       -0.02     -0.00      5.55224
 C   169 -- Li  598       -0.05      0.00      5.56157
 C   128 -- Li  601       -0.06     -0.00      5.56607
 C   309 -- Li  606       -0.05     -0.00      5.57290
 H   162 -- Li  612       -0.02     -0.00      5.57328
 Li  601 -- Li  628       -0.11      0.00      5.58419
 H   131 -- Li  634       -0.02     -0.00      5.58503
 H   535 -- Li  617       -0.02     -0.00      5.59145
 H   519 -- Li  601       -0.03      0.00      5.59442
 H   174 -- Li  611       -0.02     -0.00      5.59490
 H   129 -- Li  619       -0.02     -0.00      5.59604
 H   582 -- Li  607       -0.02     -0.00      5.59643
 H   144 -- Li  634       -0.02     -0.00      5.59713
 H   369 -- Li  615       -0.02     -0.00      5.61109
 C    72 -- Li  601       -0.05      0.00      5.61380
 C    87 -- Li  609       -0.07      0.00      5.61918
 H   156 -- Li  620       -0.02     -0.00      5.61973
 C   423 -- Li  624       -0.05      0.00      5.62267
 H   168 -- Li  598       -0.02     -0.00      5.62465
 C   257 -- Li  611       -0.06     -0.00      5.62486
 H   135 -- Li  595       -0.02      0.00      5.62682
 H   484 -- Li  622       -0.01     -0.00      5.63103
 C   470 -- Li  610       -0.05     -0.00      5.63449
 C   193 -- Li  612       -0.06      0.00      5.63654
 C   330 -- Li  620       -0.05      0.00      5.63781
 Li  599 -- Li  617       -0.14      0.00      5.63918
 C   198 -- Li  603       -0.05      0.00      5.64556
 C    83 -- Li  625       -0.07      0.00      5.65175
 H   544 -- Li  596       -0.02      0.00      5.65624
 C   210 -- Li  603       -0.06     -0.00      5.65765
 H   561 -- Li  618       -0.02      0.00      5.65851
 C   445 -- Li  624       -0.04      0.00      5.65944
 H   483 -- Li  633       -0.02     -0.00      5.66144
 H   370 -- Li  615       -0.01     -0.00      5.66433
 H   154 -- Li  607       -0.02     -0.00      5.66522
 H   574 -- Li  636       -0.02     -0.00      5.66541
 H   402 -- Li  613       -0.02     -0.00      5.66762
=============================================================


============== Orbital energy and occupancy information for spin 1 =============

      Total number of orbitals:    2264
        Occupancy sum (kernel):    1088.000000008
   Occupancy sum (eigenvalues):    1088.000000008
                 HOMO-LUMO gap:       0.000719210 Eh
                 Mid-gap level:      -0.075984601 Eh

                        Orbital | Energy (Eh) | Occupancy
                            1    -1.843369064   1.0000000
                        .......   ...........   .........
                         1079    -0.096613700   0.9966713
                         1080    -0.095721527   0.9955982
                         1081    -0.094779724   0.9940871
                         1082    -0.094621489   0.9937851
                         1083    -0.091954529   0.9856771
                         1084    -0.088120472   0.9537251
                         1085    -0.087510594   0.9437294
                         1086    -0.084584685   0.8702871
                         1087    -0.077463085   0.4162214
                         1088    -0.076344206   0.3301845
                        ....... -- gap at 0K -- .........
                         1089    -0.075624997   0.2840502
                         1090    -0.074900684   0.2400619
                         1091    -0.074093817   0.1961953
                         1092    -0.073716339   0.1785966
                         1093    -0.073347449   0.1609125
                         1094    -0.072263105   0.1201314
                         1095    -0.071509268   0.0971923
                         1096    -0.070490124   0.0723302
                         1097    -0.068785591   0.0429415
                         1098    -0.067569876   0.0302627
                        .......   ...........   .........
                         2264     0.769502553   0.0000000

================================================================================

============== Orbital energy and occupancy information for spin 2 =============

      Total number of orbitals:    2264
        Occupancy sum (kernel):    1087.999999992
   Occupancy sum (eigenvalues):    1087.999999992
                 HOMO-LUMO gap:       0.000719210 Eh
                 Mid-gap level:      -0.075984602 Eh

                        Orbital | Energy (Eh) | Occupancy
                            1    -1.843369064   1.0000000
                        .......   ...........   .........
                         1079    -0.096613700   0.9966713
                         1080    -0.095721527   0.9955982
                         1081    -0.094779724   0.9940871
                         1082    -0.094621489   0.9937851
                         1083    -0.091954530   0.9856771
                         1084    -0.088120473   0.9537251
                         1085    -0.087510594   0.9437294
                         1086    -0.084584685   0.8702871
                         1087    -0.077463085   0.4162213
                         1088    -0.076344207   0.3301845
                        ....... -- gap at 0K -- .........
                         1089    -0.075624997   0.2840502
                         1090    -0.074900684   0.2400619
                         1091    -0.074093817   0.1961953
                         1092    -0.073716340   0.1785966
                         1093    -0.073347449   0.1609125
                         1094    -0.072263105   0.1201314
                         1095    -0.071509268   0.0971922
                         1096    -0.070490124   0.0723302
                         1097    -0.068785590   0.0429415
                         1098    -0.067569876   0.0302627
                        .......   ...........   .........
                         2264     0.769502553   0.0000000

================================================================================

===================== Writing canonical molecular orbitals =====================
    Spin 1
| Orbital  Energy (eV)  Norm     |
| HOMO     -2.07743155  1.000000 | Writing "44/592nano_HOMO_UP.cube" ... done
Writing "44/592nano_HOMO_UP.dx" ... done
| LUMO     -2.05786087  1.000000 | Writing "44/592nano_LUMO_UP.cube" ... done
Writing "44/592nano_LUMO_UP.dx" ... done
================================================================================

===================== Writing canonical molecular orbitals =====================
    Spin 2
| Orbital  Energy (eV)  Norm     |
| HOMO     -2.07743157  1.000000 | Writing "44/592nano_HOMO_DN.cube" ... done
Writing "44/592nano_HOMO_DN.dx" ... done
| LUMO     -2.05786088  1.000000 | Writing "44/592nano_LUMO_DN.cube" ... done
Writing "44/592nano_LUMO_DN.dx" ... done
================================================================================

================== Local Density of States (LDOS) calculation ==================
Writing "44/592nano_UP_LDOS.txt" ...  done
================================================================================

================== Local Density of States (LDOS) calculation ==================
Writing "44/592nano_DN_LDOS.txt" ...  done
================================================================================
 
=============== Density of States (DOS) calculation for UP spin ================
Writing "44/592nano_UP_DOS.txt" ...  done
================================================================================
 
============== Density of States (DOS) calculation for DOWN spin ===============
Writing "44/592nano_DN_DOS.txt" ...  done
================================================================================
 
Writing bands to file "44/592nano.val_bands" ... done
 
================ Projected Density of States (pDOS) calculation ================
 
Constructing AM resolved functions  ...... done
Writing NGWF plot files in formats: CUBE DX ...  done
 
Performing overlap integrals ...  done
 
Computing pDOS weights ...  done
 
All bands spilling parameter =   3.04 %
Occupancy-weighted spilling parameter =   0.84 %
 
 => Outputting data for OptaDOS <=
 
Writing pDOS weights to file "44/592nano.val_pdos_bin" ... done
 
Writing band gradients to file "44/592nano.val_dome_bin" ... done
 
Writing Castep output cell file to "44/592nano-out.cell" ... done
 
 => Computing Gaussian smeared pDOS for UP spin<= 
Writing "44/592nano_UP_PDOS.txt" ...  done
 
 => Computing Gaussian smeared pDOS for DOWN spin<= 
Writing "44/592nano_DN_PDOS.txt" ...  done
 
 => Computing Occupancy-weighted Gaussian smeared pDOS for UP spin<= 
Writing "44/592nano_occ_UP_PDOS.txt" ...  done
  => Band centres for UP spin channel: 
 S band centre of group 1:  -19.125225 eV
 P band centre of group 1:   -8.371245 eV
  Band centres for UP spin channel done. <= 
  => Integrated number of electrons in each AM band for UP spin channel: 
 S num electrons of group 1:  308.745573
 P num electrons of group 1:  770.089638
  Integrated number of electrons for UP spin channel done. <= 
 
 => Computing Occupancy-weighted Gaussian smeared pDOS for DOWN spin<= 
Writing "44/592nano_occ_DN_PDOS.txt" ...  done
  => Band centres for DOWN spin channel: 
 S band centre of group 1:  -19.125225 eV
 P band centre of group 1:   -8.371245 eV
  Band centres for DOWN spin channel done. <=
  => Integrated number of electrons in each AM band for DOWN spin channel: 
 S num electrons of group 1:  308.745573
 P num electrons of group 1:  770.089638
  Integrated number of electrons for DOWN spin channel done. <=
================================================================================

------------------------------ TIMING INFORMATION ------------------------------
AVERAGE TIME:   18094.787s on    160 node(s)                                    
TOTAL TIME:     18094.794s on    160 node(s)                                    
================= AVERAGE TIMINGS FROM ALL NODES (CUMULATIVE) ==================
|| TAG                                    #calls    cpu time   %total  Gflops ||
|| work_imbalance                       :     1        0.00s   0.000%  ------ ||
|| paw_tcore_density                    :     1        0.01s   0.000%  ------ ||
|| sparse_set_to_garbage                :   237        0.01s   0.000%  ------ ||
|| paw_sphere_density_on_grid           :     1        0.01s   0.000%  ------ ||
|| basis_extract_function_from_box      :   396        0.02s   0.000%  ------ ||
|| paw_dij_hartree                      :   953        0.04s   0.000%  ------ ||
|| ngwfs_initialise_from_radial         :     2        0.04s   0.000%  ------ ||
|| ewald_calculate_energy               :     1        0.11s   0.001%  ------ ||
|| density_init_guess_real              :     1        0.28s   0.002%  ------ ||
|| paw_dataset_init                     :     3        0.33s   0.002%  ------ ||
|| paw_tcore_hartree_on_grid            :     1        0.36s   0.002%  ------ ||
|| pseudo_make_structure_factor         :     1        0.51s   0.003%  ------ ||
|| sparse_init                          :     1        1.06s   0.006%  ------ ||
|| dense_normal_eigensolve              :     1        1.37s   0.008%  ------ ||
|| restart_kernel_write                 :    15        1.84s   0.010%  ------ ||
|| paw_species_calc_proj_prec_mat       :     1        2.21s   0.012%  ------ ||
|| sparse_embed_hotelling_invert_embed  :    27        6.14s   0.034%  ------ ||
|| sw_init                              :     1        7.55s   0.042%  ------ ||
|| ngwf_gradient_coeffs                 :    14        9.40s   0.052%  ------ ||
|| fourier_apply_box_pair               :   990       11.45s   0.063%  2.285k ||
|| augmentation_screen_dij              :   714       13.97s   0.077%  ------ ||
|| projectors_init_fftbox_recip         :    85       31.76s   0.176%  ------ ||
|| basis_copy_function_to_box           : 27408       36.11s   0.200%  ------ ||
|| integrals_kinetic                    :    27       39.21s   0.217%  ------ ||
|| hartree_on_grid                      :   709       39.27s   0.217%  ------ ||
|| projectors_func_ovlp_box             :    28       42.01s   0.232%  ------ ||
|| function_ops_brappd_ketppd           :    56       43.31s   0.239%  ------ ||
|| paw_dij_xc                           :   953       47.62s   0.263%  ------ ||
|| hamiltonian_energy_components        :     3       83.94s   0.464%  ------ ||
|| sparse_trace                         : 17792      111.67s   0.617%  ------ ||
|| augmentation_density_on_grid         :   709      111.98s   0.619%  ------ ||
|| eigenstates_pdos                     :     1      114.36s   0.632%  ------ ||
|| fourier_apply_cell_forward           :  6373      137.72s   0.761% 161.066 ||
|| aug_nonlocal_mat                     :   939      138.27s   0.764%  ------ ||
|| fourier_apply_cell_backward          :  6374      147.36s   0.814% 150.556 ||
|| basis_dot_function_with_box          : 5.829M     159.91s   0.884%  ------ ||
|| restart_ngwfs_tightbox_output        :    13      166.78s   0.922%  ------ ||
|| eigenstates_calculate                :     1      226.34s   1.251%  ------ ||
|| xc_energy_potential                  :   708      286.86s   1.585%  ------ ||
|| sparse_product                       : 15355      440.37s   2.434%  ------ ||
|| basis_add_function_to_box            : 17.69M     574.76s   3.176%  ------ ||
|| dense_eigensolve                     :  1356      577.78s   3.193%  ------ ||
|| projectors_gradient_batch            :    28      635.96s   3.515%  ------ ||
|| cell_grid_extract_box_real           : 16186      691.86s   3.824%  ------ ||
|| cell_grid_deposit_box_real           : 52559      701.21s   3.875%  ------ ||
|| integrals_locpot_mat_els_batch       :   950      858.81s   4.746%  ------ ||
|| projectors_grad_precond_batch        :    28      881.06s   4.869%  ------ ||
|| density_fftbox_deposit_to_cell       : 24106     1278.14s   7.064%  ------ ||
|| properties_calculate                 :     1     1581.75s   8.741%  ------ ||
|| density_batch_row_sums               :  1418     1621.43s   8.961%  ------ ||
|| ngwf_gradient_build_batch            :    28     1680.13s   9.285%  ------ ||
|| edft_diag_ngwf_ham                   :  1354     1840.39s  10.171%  ------ ||
|| potential_apply_to_ngwf_batch        :   950     1844.19s  10.192%  ------ ||
|| ngwf_gradient_batch                  :    28     1846.23s  10.203%  ------ ||
|| fourier_apply_box                    : 86847     1870.77s  10.339%  4.034k ||
|| density_fftbox_interpolate_multiply  : 24106     2172.04s  12.004%  ------ ||
|| integrals_locpot_dbl_grid            :   475     2714.29s  15.000%  ------ ||
|| ngwf_gradient_lnv                    :    14     2787.14s  15.403%  ------ ||
|| edft_apply_smearing_operator         :   677     3025.26s  16.719%  ------ ||
|| density_batch_interp_deposit         :  1418     4189.56s  23.153%  ------ ||
|| density_on_dbl_grid                  :   709     6107.27s  33.752%  ------ ||
|| hamiltonian_lhxc_calculate           :   704     6976.51s  38.555%  ------ ||
|| edft_calculate                       :    14    12990.35s  71.791%  ------ ||
|| ngwf_cg_optimise                     :     1    16490.64s  91.135%  ------ ||
|| total_time                           :     1    18094.79s 100.000%  ------ ||
================================================================================
Overhead of generating timer report: 
- 0 ms averaging over threads,
- 25 ms ensuring consistency across MPI ranks,
- 0 ms printing in order.

Job completed: 15-10-2020 05:40 (+0100)

