 +---------------------------------------------------------------+
 |                                                               |
 |        ####### #     # ####### ####### ####### ######         |
 |        #     # ##    # #          #    #       #     #        |
 |        #     # # #   # #          #    #       #     #        |
 |        #     # #  #  # #####      #    #####   ######         |
 |        #     # #   # # #          #    #       #              |
 |        #     # #    ## #          #    #       #              |
 |        ####### #     # #######    #    ####### #              |
 |                                                               |
 |        Linear-Scaling Ab Initio Total Energy Program          |
 |                                                               |
 |          Release for academic collaborators of ODG            |
 |                                             Version 5.3.2.12  |
 |                                                               |
 +---------------------------------------------------------------+
 |                                                               |
 |  Authors:                                                     |
 |  Jacek Dziedzic, Peter D. Haynes, Nicholas D. M. Hine,        |
 |  Arash. A. Mostofi, Mike C. Payne and Chris-Kriton Skylaris   |
 |                                                               |
 |  Contributors:                                                |
 |  J. Aarons, L. Andrinopoulos, P. W. Avraam, R. A. Bell,       |
 |  A. Bhandari, G. A. Bramley, R. J. Charlton, S. J. Clark,     |
 |  R. J. Clements, G. C. Constantinescu, F. Corsetti,           |
 |  N. Corsini, O. Dieguez, S. M. M. Dubois, K. K. B. Duff,      |
 |  J. M. Escartin, A. Greco, H. Helal, Q. O. Hill, L. P. Lee,   |
 |  J.-H. Li, E. B. Linscott, G. Moynihan, D. D. O`Regan,        |
 |  O. K. Okan, M. J. S. Phipps, C. J. Pickard,                  |
 |  J. C. A. Prentice, M. I. J. Probert, L. E. Ratcliff,         |
 |  M. Robinson, A. Ruiz Serrano, J. S. Spencer, E. W. Tait,     |
 |  G. Teobaldi, D. Turban, V. Vitale, K. A. Wilkinson,          |
 |  C. Weber, J. C. Womack, N. Yeung and T. J. Zuehlsdorff       |
 |                                                               |
 |                                   Copyright (c) 2004-2020     |
 |                                                               |
 |  Please cite:                                                 |
 |  "Introducing ONETEP: Linear-scaling density functional       |
 |   simulations on parallel computers".                         |
 |   C.-K. Skylaris, P. D. Haynes, A. A. Mostofi, M. C. Payne.   |
 |   J. Chem. Phys. 122 084119 (2005).                           |
 |                                                               |
 |          in all publications arising from your use of ONETEP. |
 |                                                               |
 +---------------------------------------------------------------+
 |                                                               |
 |   ONETEP is based on developments described in the following  |
 |   publications:                                               |
 |                                                               |
 |  "Nonorthogonal generalized Wannier function pseudopotential  |
 |   plane-wave method".                                         |
 |   C.-K. Skylaris, A. A. Mostofi, P. D. Haynes, O. Dieguez,    |
 |   M. C. Payne.                                                |
 |   Phys. Rev. B 66 035119 (2002).                              |
 |                                                               |
 |  "Preconditioned iterative minimization for linear-scaling    |
 |   electronic structure calculations".                         |
 |   A. A. Mostofi, P. D. Haynes, C.-K. Skylaris, M. C. Payne.   |
 |   J. Chem. Phys. 119(17), pp.8842-8848 (2003).                |
 |                                                               |
 |  "Total-energy calculations on a real space grid with         |
 |   localized functions and a plane-wave basis".                |
 |   A. A. Mostofi, C.-K. Skylaris, P. D. Haynes, M. C. Payne.   |
 |   Comput. Phys. Commun. 147, pp.788-802 (2002).               |
 |                                                               |
 |  "Accurate kinetic energy evaluation in electronic structure  |
 |   calculations with localized functions on real space grids"  |
 |   C.-K. Skylaris, A. A. Mostofi, P. D. Haynes, C. J. Pickard, |
 |   M. C. Payne.                                                |
 |   Comput. Phys. Commun. 140, pp.315-322 (2001).               |
 |                                                               |
 |  "Accurate ionic forces and geometry optimization in linear-  |
 |   scaling density-functional theory with local orbitals"      |
 |   N. D. M. Hine, M. Robinson, P. D. Haynes, C.-K. Skylaris,   |
 |   M. C. Payne, and A. A. Mostofi.                             |
 |   Phys. Rev. B 83 195102 (2011).                              |
 |                                                               |
 +---------------------------------------------------------------+

Job started: 07-07-2020 03:23 (+0100)
 
Reading parameters from file "28/592nano.dat" ...... done

If your calculation crashes here, before "Checking processes and threads..."
is displayed, then your stack size is insufficient.
If so, use "ulimit -s unlimited" at runtime.
You can disable this check with "check_stack_size F".

Checking processes and threads...
   Determining the default number of threads...
      No default threads set at compilation time: defaulting to 1.
      OpenMP library call suggests 4 threads.
      Hybrid MPI-OpenMP compilation detected.
      Number of MPI processes > 1.
      OMP_NUM_THREADS environment variable present and
      its value matches the one obtained from the OpenMP library call.
      Using this value as default.
      Default threads: 4
      Default applies to threads_max and threads_num_fftboxes.
      Settings in the input file override this default.
   ... done

   Running with 150 MPI processes.
   There are 10 MPI processes running on the same node as the root process.
   Each MPI process is using: 
               1 threads for simulation cell FFTs.
               1 threads for parallel FFT box operations.
               4 threads for loops over batched FFT box operations.
               4 threads in other parallel regions.
... done

Basic input checks...
Resetting ngwf_cg_rotate to TRUE for EDFT calculations
... done

Reading geometry and species blocks from file "28/592nano.dat" ...    
  Number of PPD points along a3 set to 1.  This is 
  the default value, it may have been provided also in the input file.
... done
 Writing xyz coordinates to file "28/592nano.xyz" ... done


--------------------------------------------------------------------------------
---------------------------------- INPUT FILE ----------------------------------
--------------------------------------------------------------------------------

task : singlepoint                                                              
ddec_classical_hirshfeld T                                                      
do_properties : true                                                            
dx_format T                                                                     
edft T                                                                          
output_detail VERBOSE                                                           
write_xyz T                                                                     
dispersion 4                                                                    
xc_functional PBE                                                               
cutoff_energy 830 eV                                                            
paw T                                                                           
geom_disp_tol 0.015 bohr                                                        
geom_energy_tol 1.5E-6 hartree                                                  
geom_force_tol 0.01 "ha/bohr"                                                   
%BLOCK SPECIES_LDOS_GROUPS                                                      
C                                                                               
H                                                                               
Li                                                                              
%ENDBLOCK SPECIES_LDOS_GROUPS                                                   
EDFT_MAXIT 30                                                                   
pdos_max_l = 2                                                                  
dos_smear  0.1 eV                                                               
popn_calculate T                                                                
PDOS_PSEUDOATOMIC T                                                             
PDOS_REDUCE_SWS F                                                               
PDOS_CONSTRUCT_BASIS F                                                          
PDOS_LOWDIN T                                                                   
PDOS_ORTH_ATOM_BLOCKS F                                                         
PDOS_LCAO_OPTIMIZE F                                                            
pdos_optados_output T                                                           
homo_plot 0                                                                     
lumo_plot 0                                                                     
homo_dens_plot -1                                                               
lumo_dens_plot -1                                                               
%BLOCK SPECIES                                                                  
C C 6 4 9.0                                                                     
H H 1 1 9.0                                                                     
Li Li 3 5 9.0                                                                   
%ENDBLOCK SPECIES                                                               
%BLOCK SPECIES_POT                                                              
C "~/pp/paw/c_pbe_abinit.paw"                                                   
H "~/pp/paw/h_pbe_abinit.paw"                                                   
Li "~/pp/paw/li_pbe_abinit.paw"                                                 
%ENDBLOCK SPECIES_POT                                                           
%BLOCK SPECIES_ATOMIC_SET                                                       
C "SOLVE conf=2s2 2p2"                                                          
H "SOLVE conf=1s1"                                                              
Li "SOLVE conf=1s2 2s1 2p0"                                                     
%ENDBLOCK SPECIES_ATOMIC_SET                                                    
%BLOCK LATTICE_CART                                                             
94.486315650000      0.000000000000       0.000000000000                        
0.000000000000       94.486315650000      0.000000000000                        
0.000000000000       0.000000000000       94.486315650000                       
%ENDBLOCK LATTICE_CART                                                          
%BLOCK POSITIONS_ABS                                                            
C 45.501071 50.729358 30.667416                                                 
C 45.418000 50.552441 36.798234                                                 
C 46.854462 53.064130 30.694074                                                 
C 48.110354 50.554393 36.797013                                                 
C 49.554055 48.399324 30.715173                                                 
C 49.453679 48.218184 36.795088                                                 
C 50.908009 50.727070 30.747306                                                 
C 52.145420 48.215108 36.820550                                                 
C 45.504223 55.398435 30.615209                                                 
C 45.431609 55.216450 36.779857                                                 
C 46.858918 57.731176 30.530942                                                 
C 48.122324 55.221033 36.797968                                                 
C 49.556563 53.062739 30.730710                                                 
C 49.461138 52.886257 36.807183                                                 
C 50.911815 55.393144 30.637746                                                 
C 52.155866 52.879216 36.844637                                                 
C 45.389786 50.530615 42.975117                                                 
C 45.398768 50.432393 49.072862                                                 
C 46.735266 52.865767 42.962191                                                 
C 48.095776 50.440594 49.060615                                                 
C 49.429235 48.194410 42.942655                                                 
C 49.451734 48.108553 49.129626                                                 
C 50.775370 50.526400 42.937204                                                 
C 52.148392 48.117022 49.236813                                                 
C 45.389679 55.199877 42.964899                                                 
C 45.388287 55.102591 49.139421                                                 
C 46.735983 57.537438 42.953456                                                 
C 48.083043 55.111129 49.111203                                                 
C 49.429854 52.859451 42.949925                                                 
C 49.436688 52.780618 49.065931                                                 
C 50.777965 55.192801 42.957780                                                 
C 52.133915 52.792343 49.142190                                                 
C 57.668349 48.387121 30.414492                                                 
C 57.502307 48.190983 36.943345                                                 
C 59.019546 50.708167 30.366746                                                 
C 60.218614 48.189208 37.110055                                                 
C 57.517025 48.184769 42.767455                                                 
C 57.516940 48.132003 49.695379                                                 
C 58.871809 50.523934 42.735083                                                 
C 60.243414 48.142102 49.961395                                                 
C 53.614051 50.719222 30.696862                                                 
C 53.490601 50.542123 36.857104                                                 
C 54.969513 53.048467 30.665011                                                 
C 56.178619 50.537050 36.910275                                                 
C 53.473645 50.522879 42.910688                                                 
C 53.490233 50.461695 49.247170                                                 
C 54.815317 52.855833 42.901507                                                 
C 56.179441 50.475416 49.482416                                                 
C 57.669762 43.724972 30.460443                                                 
C 57.513834 43.529576 36.729744                                                 
C 59.014952 46.037619 30.283040                                                 
C 60.214920 43.532277 36.783732                                                 
C 57.520963 43.519829 42.689933                                                 
C 57.551812 43.470752 49.789374                                                 
C 58.870986 45.834805 42.669729                                                 
C 60.252606 43.488986 49.856883                                                 
C 53.608204 46.065311 30.635077                                                 
C 53.483029 45.884810 36.774770                                                 
C 54.965887 48.391502 30.612283                                                 
C 56.172658 45.870358 36.831022                                                 
C 53.470742 45.859306 42.862212                                                 
C 53.496679 45.789939 49.415903                                                 
C 54.821148 48.191650 42.864268                                                 
C 56.191769 45.803377 49.625680                                                 
C 57.665844 57.705383 30.512337                                                 
C 57.557836 57.525292 36.962160                                                 
C 59.024582 60.082678 30.384229                                                 
C 60.260426 57.500656 36.848838                                                 
C 57.511877 57.526377 42.929167                                                 
C 57.511474 57.494338 49.333762                                                 
C 58.851565 59.873035 43.011724                                                 
C 60.241721 57.487201 49.413632                                                 
C 45.490411 64.737128 30.274954                                                 
C 45.459755 64.551111 36.627600                                                 
C 46.876146 67.095823 30.255454                                                 
C 48.125453 64.566264 36.914126                                                 
C 49.538675 62.381251 30.089644                                                 
C 49.485307 62.219979 36.960955                                                 
C 50.899118 64.756480 29.829486                                                 
C 52.185925 62.224210 37.084676                                                 
C 45.386882 64.550887 42.866533                                                 
C 45.375688 64.414807 50.039999                                                 
C 46.779667 66.898323 42.792279                                                 
C 48.059311 64.440724 49.971546                                                 
C 49.432362 62.189492 42.837440                                                 
C 49.425777 62.109981 49.675955                                                 
C 50.821605 64.551381 42.691992                                                 
C 52.122875 62.129595 49.629976                                                 
C 53.603926 60.036423 30.189890                                                 
C 53.522920 59.879146 37.039504                                                 
C 54.972962 62.389714 29.871728                                                 
C 56.235974 59.858417 37.115765                                                 
C 53.481073 59.845542 42.999722                                                 
C 53.459888 59.809544 49.371920                                                 
C 54.843343 62.197834 43.043221                                                 
C 56.163078 59.823197 49.305784                                                 
C 57.669466 53.031524 30.573682                                                 
C 57.530222 52.869284 36.887687                                                 
C 59.018529 55.373929 30.608616                                                 
C 60.253100 52.866210 36.906098                                                 
C 57.513970 52.859597 42.792412                                                 
C 57.505449 52.822537 49.564932                                                 
C 58.861377 55.214903 42.754209                                                 
C 60.240658 52.836417 49.860337                                                 
C 45.502984 60.064692 30.409496                                                 
C 45.447900 59.876491 36.727376                                                 
C 46.855673 62.388870 30.252473                                                 
C 48.141249 59.885860 36.834463                                                 
C 49.559528 57.725778 30.511543                                                 
C 49.477944 57.555135 36.841230                                                 
C 50.906597 60.057674 30.265186                                                 
C 52.168741 57.546626 36.903540                                                 
C 45.392442 59.872108 42.943656                                                 
C 45.380476 59.763089 49.479671                                                 
C 46.745635 62.200172 42.876830                                                 
C 48.074230 59.774941 49.430598                                                 
C 49.429441 57.529955 42.956856                                                 
C 49.424338 57.454455 49.228325                                                 
C 50.781781 59.860682 42.942494                                                 
C 52.119296 57.470409 49.236363                                                 
C 53.612803 55.384760 30.612916                                                 
C 53.503035 55.202576 36.893331                                                 
C 54.948878 57.717444 30.434197                                                 
C 56.201294 55.197993 36.890875                                                 
C 53.466603 55.187152 42.941331                                                 
C 53.469986 55.134618 49.203326                                                 
C 54.817128 57.525017 42.977328                                                 
C 56.162984 55.137558 49.362432                                                 
H 27.267873 41.364307 29.682563                                                 
H 28.243862 39.466140 36.718761                                                 
H 27.186115 41.200768 42.504314                                                 
H 28.274013 39.304974 50.644040                                                 
H 41.860038 30.304894 29.717635                                                 
C 42.910519 32.087868 29.718794                                                 
H 44.477168 30.103588 36.934623                                                 
H 41.751739 30.079628 42.791804                                                 
C 42.781129 31.870429 42.894100                                                 
H 44.461617 29.978104 49.512690                                                 
H 29.611808 37.276815 29.578183                                                 
C 30.653063 39.060427 29.633225                                                 
H 32.270191 37.124268 36.946659                                                 
H 33.730555 34.888017 29.515460                                                 
C 34.750348 36.684676 29.571509                                                 
H 29.504355 37.144817 42.837111                                                 
C 30.541956 38.931416 42.885817                                                 
H 32.345642 36.968690 50.622284                                                 
H 33.554566 34.742983 42.994751                                                 
C 34.596727 36.527322 43.031900                                                 
H 37.829300 32.599873 29.413703                                                 
C 38.840896 34.404918 29.458488                                                 
H 40.409160 32.424416 37.119025                                                 
H 37.662886 32.386699 42.875305                                                 
C 38.682830 34.184786 42.890709                                                 
H 40.391918 32.316564 50.119968                                                 
H 46.516524 30.311888 30.166127                                                 
H 46.421904 30.111487 43.124924                                                 
H 25.850427 48.203486 36.857804                                                 
C 27.915948 48.212376 36.847468                                                 
H 25.819255 48.033190 50.118970                                                 
C 27.882219 48.053500 50.049699                                                 
H 25.882920 43.506655 36.767570                                                 
H 27.263263 46.081177 29.527313                                                 
C 27.949970 43.505625 36.778168                                                 
H 25.889128 43.330211 50.353947                                                 
H 27.176638 45.902701 42.533064                                                 
C 27.952900 43.349051 50.271140                                                 
H 25.903580 57.628757 37.098937                                                 
H 27.307729 60.084561 29.530027                                                 
C 27.972481 57.624303 37.070297                                                 
H 25.815919 57.430428 49.455607                                                 
H 27.193864 59.854832 43.156457                                                 
C 27.881258 57.425901 49.532876                                                 
H 25.860904 52.940464 36.974232                                                 
H 27.298959 55.418056 29.473743                                                 
C 27.927163 52.921847 36.953899                                                 
H 25.797565 52.725713 49.826627                                                 
H 27.203944 55.209790 43.132164                                                 
C 27.865590 52.724769 49.799044                                                 
C 29.333891 41.362390 29.699781                                                 
C 29.261437 41.265621 36.749028                                                 
C 30.613182 43.726468 29.746238                                                 
C 31.950212 41.197121 36.811991                                                 
C 33.349332 38.969541 29.646500                                                 
C 33.311462 38.911873 36.897248                                                 
C 34.708229 41.369587 29.805685                                                 
C 35.973614 38.847151 37.075704                                                 
C 29.330294 46.074833 29.617258                                                 
C 29.220597 45.877787 36.870853                                                 
C 30.633930 48.397181 29.551524                                                 
C 31.941420 45.862889 36.850940                                                 
C 33.356628 43.706792 29.851439                                                 
C 33.288847 43.543685 36.829572                                                 
C 34.710950 46.060247 29.951173                                                 
C 35.993513 43.541719 36.846924                                                 
C 29.243811 41.201607 42.672373                                                 
C 29.287474 41.097180 50.461645                                                 
C 30.528300 43.571221 42.695386                                                 
C 31.975493 41.050439 50.395927                                                 
C 33.227739 38.832297 42.965616                                                 
C 33.366503 38.763051 50.446271                                                 
C 34.578125 41.206297 42.994341                                                 
C 36.021052 38.733693 50.396689                                                 
C 29.237842 45.901047 42.686730                                                 
C 29.195294 45.732741 50.119653                                                 
C 30.537006 48.239448 42.652156                                                 
C 31.923139 45.737213 49.977139                                                 
C 33.249148 43.539083 42.888779                                                 
C 33.290240 43.422866 50.080487                                                 
C 34.608290 45.884198 42.932117                                                 
C 35.999794 43.415365 49.892276                                                 
C 41.486176 39.069123 29.810280                                                 
C 41.391467 38.875039 36.942909                                                 
C 42.824975 41.405848 30.125635                                                 
C 44.079893 38.876120 36.845113                                                 
C 41.349729 38.855944 42.982774                                                 
C 41.429674 38.764286 49.913265                                                 
C 42.694735 41.197934 43.039218                                                 
C 44.104723 38.764056 49.660508                                                 
C 37.429068 41.376265 29.899561                                                 
C 37.338716 41.220696 36.939172                                                 
C 38.762930 43.718523 30.142536                                                 
C 40.037576 41.214564 36.892750                                                 
C 37.300359 41.196701 43.046379                                                 
C 37.363751 41.104786 50.051502                                                 
C 38.649481 43.530674 43.055629                                                 
C 40.056072 41.085779 49.815162                                                 
C 41.497287 34.385006 29.534034                                                 
C 41.427772 34.220322 37.042252                                                 
C 42.865516 36.737649 29.619660                                                 
C 44.093755 34.183410 36.916108                                                 
C 41.358392 34.157372 42.842867                                                 
C 41.428683 34.105375 50.029273                                                 
C 42.722708 36.508880 42.939006                                                 
C 44.092306 34.055214 49.709758                                                 
C 37.437200 36.658953 29.519247                                                 
C 37.357937 36.558297 36.992168                                                 
C 38.797226 39.042176 29.726489                                                 
C 40.023255 36.499415 37.023842                                                 
C 37.274481 36.461002 42.941798                                                 
C 37.401675 36.445839 50.212676                                                 
C 38.651206 38.848677 43.000749                                                 
C 40.077911 36.386807 50.215523                                                 
C 41.451294 48.396699 30.495549                                                 
C 41.380385 48.216535 36.787807                                                 
C 42.799899 50.730503 30.584812                                                 
C 44.069491 48.218647 36.796371                                                 
C 41.349871 48.199407 43.014707                                                 
C 41.360815 48.084808 49.241305                                                 
C 42.695852 50.532753 42.994184                                                 
C 44.057260 48.090711 49.151118                                                 
C 29.368315 55.411594 29.567046                                                 
C 29.241670 55.246353 37.068422                                                 
C 30.670871 57.739663 29.599963                                                 
C 31.962067 55.250815 37.006577                                                 
C 33.384880 53.081951 29.803110                                                 
C 33.304561 52.895033 36.897374                                                 
C 34.723870 55.405656 29.897873                                                 
C 36.003735 52.887238 36.823776                                                 
C 29.272425 55.208618 43.124165                                                 
C 29.154961 55.044592 49.603460                                                 
C 30.558077 57.516879 43.134192                                                 
C 31.896143 55.072639 49.577954                                                 
C 33.276442 52.888103 43.011632                                                 
C 33.254052 52.733161 49.578366                                                 
C 34.614860 55.204995 43.048514                                                 
C 35.951747 52.740742 49.439865                                                 
C 37.404042 50.731405 30.247777                                                 
C 37.344085 50.551855 36.782597                                                 
C 38.752423 53.069261 30.334949                                                 
C 40.042021 50.550311 36.781312                                                 
C 37.312410 50.539415 43.006117                                                 
C 37.306721 50.410131 49.380461                                                 
C 38.658832 52.875804 43.012327                                                 
C 40.004804 50.416619 49.244922                                                 
C 41.463505 43.729174 30.271684                                                 
C 41.381910 43.546932 36.821787                                                 
C 42.805800 46.064623 30.469233                                                 
C 44.073398 43.548203 36.791458                                                 
C 41.345168 43.528281 43.047929                                                 
C 41.384312 43.419703 49.511133                                                 
C 42.694594 45.864983 43.026433                                                 
C 44.078521 43.424629 49.373328                                                 
C 29.352586 50.738347 29.675106                                                 
C 29.196542 50.563975 36.918285                                                 
C 30.654684 53.086544 29.540108                                                 
C 31.946325 50.559825 36.867996                                                 
C 33.374667 48.390563 29.824080                                                 
C 33.295897 48.217345 36.830654                                                 
C 34.713338 50.731521 29.976823                                                 
C 35.995893 48.217974 36.784172                                                 
C 29.262148 50.560370 42.865328                                                 
C 29.156461 50.413329 49.924475                                                 
C 30.554083 52.890767 43.016921                                                 
C 31.909132 50.416835 49.756286                                                 
C 33.276259 48.214881 42.845109                                                 
C 33.268222 48.086944 49.744704                                                 
C 34.617515 50.547564 42.960066                                                 
C 35.968029 48.075233 49.537929                                                 
C 37.409109 46.054714 30.171098                                                 
C 37.344342 45.881439 36.797519                                                 
C 38.754950 48.391954 30.332928                                                 
C 40.034068 45.881665 36.795739                                                 
C 37.304321 45.872013 43.022427                                                 
C 37.326932 45.747491 49.586317                                                 
C 38.654129 48.202592 43.016569                                                 
C 40.022314 45.749425 49.423972                                                 
C 45.490598 32.093933 29.968923                                                 
C 45.507885 31.887197 36.774117                                                 
C 46.905105 34.391982 30.039919                                                 
C 48.074175 31.887328 36.445483                                                 
H 49.116474 30.106255 36.348039                                                 
H 50.551378 32.617824 30.383324                                                 
C 45.541005 36.735723 29.928678                                                 
C 45.450962 36.530163 36.778698                                                 
C 46.871818 39.070840 30.188236                                                 
C 48.115792 36.534921 36.470903                                                 
C 49.535446 34.411474 30.254167                                                 
C 49.478658 34.187120 36.267511                                                 
C 50.924443 36.679203 30.366479                                                 
C 52.136676 34.228939 36.095600                                                 
C 45.370088 31.890644 43.078547                                                 
C 45.497730 31.766838 49.538104                                                 
C 46.761561 34.189320 43.209468                                                 
C 48.137745 31.764043 49.444614                                                 
H 49.165282 29.973109 49.351407                                                 
H 50.443131 32.436524 43.476433                                                 
C 45.398883 36.519459 43.107243                                                 
C 45.471983 36.417996 49.605995                                                 
C 46.743436 38.860858 43.137875                                                 
C 48.164037 36.423661 49.522900                                                 
C 49.415270 34.229790 43.387936                                                 
C 49.563816 34.061606 49.522969                                                 
C 50.796313 36.504253 43.408165                                                 
C 52.211361 34.113301 49.705168                                                 
H 53.165831 32.440228 36.002131                                                 
H 53.249135 32.324411 49.710127                                                 
C 57.658450 39.096549 30.541890                                                 
C 57.528659 38.867237 36.459793                                                 
C 59.007166 41.369474 30.480218                                                 
C 60.224606 38.930491 36.527636                                                 
C 57.494926 38.893201 42.619944                                                 
C 57.589976 38.789227 50.019105                                                 
C 58.859012 41.176553 42.633643                                                 
C 60.284661 38.877556 49.952055                                                 
C 45.503009 46.067059 30.556782                                                 
C 45.415138 45.887688 36.779649                                                 
C 46.854408 48.398077 30.664225                                                 
C 48.106787 45.888851 36.758749                                                 
C 49.555108 43.739518 30.578024                                                 
C 49.458461 43.554977 36.689329                                                 
C 50.910311 46.066945 30.670231                                                 
C 52.146221 43.556744 36.667792                                                 
C 45.386713 45.862935 43.004786                                                 
C 45.413518 45.761057 49.210185                                                 
C 46.736496 48.196093 42.973340                                                 
C 48.111366 45.771660 49.193498                                                 
C 49.431852 43.526956 42.984178                                                 
C 49.471671 43.440920 49.325865                                                 
C 50.780917 45.860958 42.924756                                                 
C 52.160355 43.452142 49.451421                                                 
C 53.627651 41.410503 30.584638                                                 
C 53.495530 41.224195 36.540351                                                 
C 54.972058 43.736034 30.575720                                                 
C 56.183051 41.218491 36.572263                                                 
C 53.474401 41.202988 42.819743                                                 
C 53.514572 41.119238 49.700996                                                 
C 54.819801 43.523222 42.778952                                                 
C 56.226790 41.142640 49.871229                                                 
H 57.237844 34.809605 36.179261                                                 
H 58.692863 37.307880 30.606668                                                 
H 57.285190 34.703190 50.020123                                                 
H 58.535189 37.106465 42.566079                                                 
C 45.516757 41.409766 30.267601                                                 
C 45.420401 41.221321 36.758907                                                 
C 46.855962 43.736308 30.487354                                                 
C 48.111210 41.224294 36.650332                                                 
C 49.548380 39.058627 30.382327                                                 
C 49.461300 38.890420 36.464860                                                 
C 50.910355 41.406036 30.540699                                                 
C 52.158279 38.895403 36.360285                                                 
C 45.389099 41.198715 43.054933                                                 
C 45.441270 41.094096 49.454055                                                 
C 46.733615 43.527350 43.026509                                                 
C 48.138008 41.098754 49.410923                                                 
C 49.423490 38.864878 43.193415                                                 
C 49.499485 38.773677 49.530368                                                 
C 50.780102 41.196042 43.007353                                                 
C 52.185687 38.776753 49.707074                                                 
C 53.605236 36.736801 30.377707                                                 
C 53.533915 36.525931 36.177515                                                 
C 55.001261 39.031992 30.541245                                                 
C 56.193715 36.596325 36.261199                                                 
C 53.472436 36.548790 43.111524                                                 
C 53.563621 36.400088 49.853566                                                 
C 54.833227 38.830362 42.684343                                                 
C 56.235982 36.484798 49.999348                                                 
H 61.245669 37.132471 36.476552                                                 
H 62.710801 39.649728 30.680113                                                 
H 61.320127 37.087878 49.945085                                                 
H 62.557595 39.430419 42.627544                                                 
H 28.284509 61.662940 37.065093                                                 
H 28.172452 61.499702 49.589223                                                 
C 29.378130 60.098662 29.524733                                                 
C 29.293054 59.857740 37.049777                                                 
C 30.669622 62.351680 29.452686                                                 
C 31.982914 59.911059 37.007862                                                 
C 33.374003 57.744788 29.713542                                                 
C 33.316321 57.566553 36.978853                                                 
C 34.714536 60.065247 29.655017                                                 
C 36.015783 57.560019 36.888123                                                 
H 29.641690 64.147641 29.407147                                                 
H 32.315675 63.982796 36.978966                                                 
C 33.365529 62.426301 29.473702                                                 
C 33.353609 62.193141 36.950322                                                 
C 34.730050 64.725301 29.540252                                                 
C 36.009583 62.244661 36.889226                                                 
C 29.261761 59.882344 43.134268                                                 
C 29.200583 59.707525 49.616428                                                 
C 30.534614 62.136834 43.077331                                                 
C 31.895692 59.781410 49.772681                                                 
C 33.262596 57.535416 43.073304                                                 
C 33.242176 57.400839 49.655208                                                 
C 34.586103 59.864521 43.004395                                                 
C 35.958608 57.407720 49.670337                                                 
H 29.501490 63.929439 43.066003                                                 
H 32.234540 63.840197 50.178157                                                 
C 33.230560 62.220210 43.017123                                                 
C 33.265894 62.049389 50.092526                                                 
C 34.583875 64.521183 43.141021                                                 
C 35.935034 62.085659 50.265122                                                 
C 41.453397 57.735584 30.369505                                                 
C 41.401421 57.547367 36.741736                                                 
C 42.800605 60.071779 30.344498                                                 
C 44.094941 57.552671 36.737791                                                 
C 41.348125 57.542728 42.985936                                                 
C 41.342242 57.421862 49.425253                                                 
C 42.690405 59.882562 42.975820                                                 
C 44.037346 57.434013 49.312240                                                 
C 37.426151 60.075208 29.888381                                                 
C 37.364125 59.875426 36.819554                                                 
C 38.764776 62.413654 29.923466                                                 
C 40.063141 59.877949 36.675355                                                 
C 37.303186 59.882767 42.979375                                                 
C 37.302578 59.720725 49.902451                                                 
C 38.643985 62.223180 43.040485                                                 
C 39.996416 59.745182 49.728327                                                 
C 41.451581 53.065728 30.515259                                                 
C 41.389565 52.881588 36.790532                                                 
C 42.803764 55.397863 30.528412                                                 
C 44.080671 52.886816 36.792244                                                 
C 41.353094 52.871034 42.994641                                                 
C 41.346342 52.754413 49.193669                                                 
C 42.697716 55.204216 42.981448                                                 
C 44.043276 52.765659 49.106453                                                 
C 37.416038 55.404877 30.151949                                                 
C 37.358251 55.217710 36.831341                                                 
C 38.766232 57.737461 30.163180                                                 
C 40.046826 55.214518 36.791981                                                 
C 37.315413 55.206636 43.016406                                                 
C 37.300852 55.077005 49.446869                                                 
C 38.658601 57.540949 42.997465                                                 
C 39.996165 55.085609 49.333457                                                 
C 41.396777 67.113710 30.225533                                                 
C 41.457070 66.822668 36.162821                                                 
C 42.827706 69.404952 30.398879                                                 
C 44.114132 66.880361 36.434315                                                 
C 41.330017 66.929170 43.238088                                                 
C 41.335307 66.698572 50.289697                                                 
C 42.752970 69.211942 43.073605                                                 
C 43.994667 66.740790 50.360740                                                 
H 37.718603 68.867085 29.933187                                                 
H 40.430159 68.612428 35.933994                                                 
H 37.623942 68.678710 43.663830                                                 
H 40.303946 68.485134 50.439664                                                 
C 41.447028 62.403029 30.181454                                                 
C 41.429566 62.195896 36.486557                                                 
C 42.795774 64.746552 30.254269                                                 
C 44.107037 62.208136 36.589991                                                 
C 41.343333 62.212019 43.030608                                                 
C 41.347971 62.073620 49.890613                                                 
C 42.701725 64.564999 43.024265                                                 
C 44.023277 62.082004 49.781957                                                 
H 33.682375 66.507168 29.492694                                                 
H 33.527332 66.296021 43.240618                                                 
C 37.396725 64.796195 29.754019                                                 
C 37.387765 64.513212 36.423755                                                 
C 38.754172 67.075743 29.953436                                                 
C 40.073501 64.544566 36.197873                                                 
C 37.258923 64.606236 43.213727                                                 
C 37.313464 64.360284 50.273271                                                 
C 38.644676 66.893427 43.455646                                                 
C 39.974387 64.421462 50.160409                                                 
C 61.699045 41.435804 30.462412                                                 
C 61.509114 41.169875 36.660593                                                 
C 62.999967 43.659654 30.185509                                                 
H 63.573886 41.192533 36.691212                                                 
C 61.715472 46.027649 29.977457                                                 
C 61.502802 45.836286 36.992472                                                 
C 63.012992 48.364644 29.737813                                                 
H 63.571577 45.822692 37.145585                                                 
H 65.066833 43.656762 30.190317                                                 
C 61.548485 41.234154 42.626205                                                 
C 61.558556 41.135647 49.860944                                                 
C 62.865777 43.468927 42.604955                                                 
H 63.624955 41.163479 49.780940                                                 
C 61.593312 45.842345 42.575098                                                 
C 61.540301 45.820196 49.914821                                                 
C 62.906282 48.172868 42.591497                                                 
H 63.609249 45.824199 49.971711                                                 
H 64.934254 43.469787 42.569614                                                 
C 61.766575 55.345572 30.624004                                                 
C 61.537276 55.186255 36.797662                                                 
C 63.031637 57.731442 30.768277                                                 
H 63.602743 55.174743 36.744791                                                 
H 65.123235 53.032590 30.345407                                                 
C 61.578955 55.208781 42.583880                                                 
C 61.531066 55.160849 49.707491                                                 
C 62.857094 57.585609 42.682234                                                 
H 63.595054 55.171225 49.800438                                                 
H 64.954995 52.898470 42.368127                                                 
C 61.755693 50.717107 30.082495                                                 
C 61.519827 50.521654 37.062895                                                 
C 63.053372 53.033495 30.342781                                                 
H 65.072856 48.353673 29.517918                                                 
C 61.620986 50.523911 42.581298                                                 
C 61.533593 50.493728 49.801158                                                 
C 62.892598 52.884715 42.516940                                                 
H 64.971361 48.162165 42.487321                                                 
H 41.802583 71.200426 30.490749                                                 
H 44.444431 70.960479 36.478920                                                 
H 41.732905 71.009011 43.136952                                                 
H 44.351107 70.830354 50.493045                                                 
C 45.471503 69.388658 30.418313                                                 
C 45.498784 69.180090 36.582121                                                 
H 46.509293 71.174292 30.532014                                                 
C 48.082574 69.202740 36.876701                                                 
C 49.541614 67.041578 30.009212                                                 
C 49.491559 66.915620 37.042240                                                 
H 50.574099 68.836975 30.045172                                                 
C 52.163243 66.884286 37.190318                                                 
H 49.100171 71.000443 36.997034                                                 
C 45.371146 69.195107 42.830720                                                 
C 45.400806 69.051314 50.395669                                                 
H 46.404056 70.978476 42.699400                                                 
C 48.003304 69.071477 50.296811                                                 
C 49.441162 66.845652 42.746027                                                 
C 49.428000 66.789255 50.170628                                                 
H 50.473623 68.632123 42.622712                                                 
C 52.096694 66.776522 50.073288                                                 
H 49.034226 70.863317 50.316516                                                 
H 57.277436 66.274878 37.769412                                                 
H 57.174987 66.283629 49.635753                                                 
H 53.173633 68.681802 37.286990                                                 
H 53.112215 68.574857 50.143089                                                 
C 57.640844 62.350622 29.951055                                                 
C 57.597137 62.201383 37.372290                                                 
H 58.669970 64.132463 29.709170                                                 
C 60.293001 62.110126 37.206901                                                 
C 57.495417 62.139415 43.106992                                                 
C 57.504131 62.217876 49.335745                                                 
H 58.529378 63.930193 43.112042                                                 
C 60.203315 62.138651 49.204821                                                 
C 53.581657 64.678757 29.912056                                                 
C 53.560020 64.599874 37.300101                                                 
C 56.234967 64.508686 37.495344                                                 
C 53.469455 64.484864 42.929932                                                 
C 53.499445 64.508750 49.821911                                                 
C 56.148074 64.485756 49.608962                                                 
C 61.707991 60.014742 30.643008                                                 
C 61.550448 59.864210 36.904922                                                 
H 62.736177 61.809283 30.689819                                                 
H 63.604231 59.846887 36.709217                                                 
H 65.089723 57.751284 30.909078                                                 
H 61.346560 63.888349 37.317394                                                 
C 61.548031 59.806393 42.908473                                                 
C 61.517921 59.853721 49.250006                                                 
H 62.561541 61.606324 42.970889                                                 
H 63.582500 59.841677 49.186519                                                 
H 64.922153 57.586349 42.558415                                                 
H 61.237572 63.925574 49.104813                                                 
H 63.598816 50.496256 49.939285                                                 
H 36.369369 34.656839 50.359738                                                 
H 36.281986 66.147907 50.421332                                                 
H 27.194754 50.569877 42.798699                                                 
H 54.513672 66.268656 42.860595                                                 
H 63.577576 50.491245 37.318504                                                 
H 54.511838 34.760637 43.141449                                                 
H 36.329549 34.769527 37.090872                                                 
H 36.350433 66.299126 36.250301                                                 
H 54.620395 66.459951 29.780677                                                 
H 27.285562 50.746989 29.543609                                                 
H 54.637152 34.945585 30.398095                                                 
Li 31.963011 41.466138 26.427404                                                
Li 30.404217 47.991705 33.403973                                                
Li 58.913755 59.940331 52.620025                                                
Li 35.930634 38.577776 33.188812                                                
Li 60.576362 57.643345 27.296746                                                
Li 42.602208 36.239379 33.495422                                                
Li 30.421763 57.353126 52.932803                                                
Li 35.807216 62.210611 46.460007                                                
Li 46.937003 33.973431 52.861159                                                
Li 30.161711 48.081609 46.472741                                                
Li 52.438763 39.086591 27.151199                                                
Li 35.715973 38.687340 46.505156                                                
Li 44.152995 67.249794 27.006943                                                
Li 35.601546 62.519387 33.083892                                                
Li 30.404997 53.348478 33.446492                                                
Li 40.238123 36.134322 46.363817                                                
Li 55.269611 38.649823 46.472058                                                
Li 60.513880 47.856221 46.103412                                                
Li 44.318378 66.950854 46.432407                                                
Li 50.810779 64.978319 46.488097                                                
Li 50.892140 64.827877 33.667796                                                
Li 39.316505 66.030562 39.685456                                                
Li 60.566314 53.084501 46.051103                                                
Li 51.054695 36.174905 39.642325                                                
Li 30.896603 41.990438 46.511183                                                
Li 61.868000 48.278514 33.558020                                                
Li 55.804171 62.731059 33.737150                                                
Li 61.990080 53.741400 33.744600                                                
%ENDBLOCK POSITIONS_ABS                                                         

--------------------------------------------------------------------------------
-------------------------------- END INPUT FILE --------------------------------
--------------------------------------------------------------------------------


 
<<<<<<<<<<<<<<<<<<<<<<<<<<<<<<<<< Full system >>>>>>>>>>>>>>>>>>>>>>>>>>>>>>>>>>
<<<<<<<<<<<<<<<<<<<<<<<<<<< PAW Dataset information >>>>>>>>>>>>>>>>>>>>>>>>>>>
File: ~/pp/paw/c_pbe_abinit.paw; rc = 1.25 bohr; shape type =  3; rshape = 1.25 bohr;
  Atomic number:  6;  ionic charge:  4.000000
    Partial Wave 1: l = 0
    Partial Wave 2: l = 0
    Partial Wave 3: l = 1
    Partial Wave 4: l = 1
  Core charge supplied for Nonlinear Core Corrections
File: ~/pp/paw/h_pbe_abinit.paw; rc = 0.90 bohr; shape type =  3; rshape = 0.90 bohr;
  Atomic number:  1;  ionic charge:  1.000000
    Partial Wave 1: l = 0
    Partial Wave 2: l = 0
File: ~/pp/paw/li_pbe_abinit.paw; rc = 1.42 bohr; shape type =  3; rshape = 1.42 bohr;
  Atomic number:  3;  ionic charge:  3.000000
    Partial Wave 1: l = 0
    Partial Wave 2: l = 0
    Partial Wave 3: l = 0
    Partial Wave 4: l = 1
    Partial Wave 5: l = 1
<<<<<<<<<<<<<<<<<<<<<<<<<<<<<<<<<<<<<<< >>>>>>>>>>>>>>>>>>>>>>>>>>>>>>>>>>>>>>>

-------------------------- Atom counting information ---------------------------
Symbol    Natoms    Nngwfs    Nprojs
  C        484      1936      3872
  H        108       108       216
  Li        28       140       252
.......   ......    ......    ......
Totals:    620      2184      4340
--------------------------------------------------------------------------------

=============================== PSINC grid sizes ===============================
                      Simulation cell:  189 x 189 x 189
                              FFT-box:  117 x 117 x 117
                                  PPD:    7 x   7 x   1
Grid space d1=  0.499927596032a0 (KE cutoff=  30.39413Eh = 827.06648eV)
Grid space d2=  0.499927596032a0 (KE cutoff=  30.39413Eh = 827.06648eV)
Grid space d3=  0.499927596032a0 (KE cutoff=  30.39413Eh = 827.06648eV)
================================================================================
  
WARNING in cell_grid_distribute:
Average of less than one 23-slab per node, so workload cannot be
equally balanced between nodes.

********************* Fourier parallelisation information **********************
       Coarse grid (whole simulation cell) dimensions:    189   189   189
          Real-space ('12') slabs/node (min max mean):      1     2     1
         Recip-space ('23') slabs/node (min max mean):      0     1     0
********************************************************************************

********************* Fourier parallelisation information **********************
       Double grid (whole simulation cell) dimensions:    378   378   378
          Real-space ('12') slabs/node (min max mean):      2     3     2
         Recip-space ('23') slabs/node (min max mean):      1     2     1
********************************************************************************

Atom SCF Calculation for C  : Z (AE atom) =   6 : Z (PS atom) =   4
Config String: 2s2 2p2
Orbitals (num,occ):  2     2.00 2.00
Orbitals   (num,l):  2        0    1
Real-space Grid (nr,dr,rmax): 1377    0.0065406977    9.0000000000
Spherical Bessel Basis (nsws,lmax,cutoff):   37    2  183.0099912382
Confining potential (l,width,scale):  0    3.0000000000  100.0000000000
Confining potential (l,width,scale):  1    3.0000000000  100.0000000000
  1         -5.4350126632   -1.2715272878    4.5135247139   -1.5681949477
  2         -5.3876836850   -1.3562195125    4.4235426751   -1.5380057521
  3         -5.3928844498   -1.3758175853    4.4021699684   -1.5318377811
  4         -5.3988962903   -1.3800385428    4.3975423583   -1.5307324410
  5         -5.4018428823   -1.3823489590    4.3950111904   -1.5301555648
  6         -5.4033571720   -1.3835805046    4.3936635548   -1.5298576834
  7         -5.4041480647   -1.3842324820    4.3929512000   -1.5297032953
  8         -5.4045641108   -1.3845769138    4.3925755232   -1.5296229456
  9         -5.4047838258   -1.3847587737    4.3923775340   -1.5295810042
 10         -5.4049001347   -1.3848548089    4.3922731819   -1.5295590658
 11         -5.4049618018   -1.3849055476    4.3922181562   -1.5295475724
 12         -5.4049945351   -1.3849323732    4.3921891206   -1.5295415432
 13         -5.4050119258   -1.3849465673    4.3921737867   -1.5295383767
 14         -5.4050211723   -1.3849540841    4.3921656816   -1.5295367119
 15         -5.4050260920   -1.3849580684    4.3921613935   -1.5295358358
 16         -5.4050287113   -1.3849601822    4.3921591228   -1.5295353742
 17         -5.4050301068   -1.3849613045    4.3921579192   -1.5295351307
 18         -5.4050308507   -1.3849619010    4.3921572806   -1.5295350022
 19         -5.4050312476   -1.3849622183    4.3921569415   -1.5295349343
 20         -5.4050314594   -1.3849623873    4.3921567612   -1.5295348984
 21         -5.4050315725   -1.3849624773    4.3921566653   -1.5295348794
 22         -5.4050316330   -1.3849625253    4.3921566143   -1.5295348693
Atom SCF converged after  22 iterations to a total energy of     -5.40503163

Atom SCF Calculation for H  : Z (AE atom) =   1 : Z (PS atom) =   1
Config String: 1s1
Orbitals (num,occ):  1     1.00
Orbitals   (num,l):  1        0
Real-space Grid (nr,dr,rmax): 1377    0.0065406977    9.0000000000
Spherical Bessel Basis (nsws,lmax,cutoff):   37    1  183.0099912382
Confining potential (l,width,scale):  0    3.0000000000  100.0000000000
  1         -0.3605254152   -0.2399954029    0.2820952946   -0.2424203210
  2         -0.4156854077   -0.2398249290    0.2871789324   -0.2464796203
  3         -0.4412552402   -0.2379720642    0.2899127187   -0.2499011370
  4         -0.4517265951   -0.2371980236    0.2908966173   -0.2514141636
  5         -0.4557775773   -0.2369735141    0.2911607883   -0.2519713623
  6         -0.4573363459   -0.2369240355    0.2912108681   -0.2521663171
  7         -0.4579443228   -0.2369187864    0.2912112833   -0.2522344454
  8         -0.4581858602   -0.2369215483    0.2912049187   -0.2522587615
  9         -0.4582834939   -0.2369242589    0.2912002081   -0.2522677042
 10         -0.4583235236   -0.2369258837    0.2911975892   -0.2522710965
 11         -0.4583401154   -0.2369267223    0.2911962825   -0.2522724192
 12         -0.4583470483   -0.2369271266    0.2911956643   -0.2522729467
 13         -0.4583499624   -0.2369273145    0.2911953803   -0.2522731607
 14         -0.4583511926   -0.2369274000    0.2911952521   -0.2522732486
 15         -0.4583517136   -0.2369274385    0.2911951948   -0.2522732850
 16         -0.4583519349   -0.2369274556    0.2911951693   -0.2522733002
 17         -0.4583520290   -0.2369274632    0.2911951581   -0.2522733066
Atom SCF converged after  17 iterations to a total energy of     -0.45835203

Atom SCF Calculation for Li : Z (AE atom) =   3 : Z (PS atom) =   3
Config String: 1s2 2s1 2p0
Orbitals (num,occ):  3     2.00 1.00 0.00
Orbitals   (num,l):  3        0    0    1
Real-space Grid (nr,dr,rmax): 1377    0.0065406977    9.0000000000
Spherical Bessel Basis (nsws,lmax,cutoff):   37    2  183.0099912382
Confining potential (l,width,scale):  0    3.0000000000  100.0000000000
Confining potential (l,width,scale):  1    3.0000000000  100.0000000000
  1         -6.0640888065   -4.6655401716    2.5388576516   -0.9989538799
  2         -6.9627542978   -4.0954079129    2.9808988108   -1.1965571426
  3         -7.2692687601   -3.8889996707    3.2029735703   -1.3193883705
  4         -7.3784440298   -3.8322099748    3.2868571989   -1.3711018151
  5         -7.4170278248   -3.8191968371    3.3144974220   -1.3911175539
  6         -7.4303549880   -3.8172386945    3.3228486489   -1.3986896266
  7         -7.4348052089   -3.8175483495    3.3251259310   -1.4015352495
  8         -7.4362242328   -3.8180607346    3.3256233205   -1.4026016384
  9         -7.4366459715   -3.8184145665    3.3256561549   -1.4029998726
 10         -7.4367560626   -3.8186169740    3.3256001574   -1.4031477379
 11         -7.4367765260   -3.8187239825    3.3255481763   -1.4032021548
 12         -7.4367751741   -3.8187782620    3.3255144587   -1.4032219192
 13         -7.4367707398   -3.8188051288    3.3254952336   -1.4032289600
 14         -7.4367680349   -3.8188156035    3.3254870176   -1.4032309087
 15         -7.4367661982   -3.8188217406    3.3254819951   -1.4032318132
 16         -7.4367650112   -3.8188253257    3.3254789583   -1.4032322224
 17         -7.4367642682   -3.8188274151    3.3254771375   -1.4032324006
 18         -7.4367638134   -3.8188286307    3.3254760529   -1.4032324736
 19         -7.4367635392   -3.8188293370    3.3254754103   -1.4032325004
 20         -7.4367633760   -3.8188297469    3.3254750310   -1.4032325080
 21         -7.4367632796   -3.8188299846    3.3254748079   -1.4032325082
Atom SCF converged after  21 iterations to a total energy of     -7.43676328

Determining parallel strategy ...
... using space-filling curve
... NGWF load balancing: max     17;  min     13;  average     15
... Projector load balancing: max     34;  min     26;  average     29
... done
Calculating Ewald energy ...
              Ewald: real-space energy =   36365.772798
        Ewald: reciprocal-space energy =   35614.373906
         Ewald: (sum_charge)**2 Energy =    2810.263916
         Ewald: (sum_charge**2) Energy =     250.454669
                          Ewald Energy =   68919.428119
======================= Empirical dispersion information =======================
Model : Grimme D2
Dispersion Correction Energy: -0.21752337E+01 Hartree
================================================================================
Basis initialisation ...... NGWF spheres initialised
... Projector spheres initialised
... NGWF tight boxes initialised
... Projector tight boxes initialised
... Tight-boxes gathered
... NGWF basis size (local,global):     284441  42145472
... PAW projector initialisation
... done

============================= Charge Augmentation ==============================
                           Aug box size:   13 x  13 x  13
================================================================================

========================== Sparse matrix information ===========================
                        Overlap matrix filling:  37.82%
                        Density kernel filling: 100.00%
              NGWF-Proj overlap matrix filling:  10.65%
                    Aug Overlap matrix filling:  41.94%
                    Hamiltonian matrix filling:  41.94%
                  NGWF diagonal matrix filling:   0.18%
                             KS matrix filling: 100.00% 
                           KSKS matrix filling: 100.00% 
================================================================================

Sparse matrix initialisation ... done
NGWF initialisation ...... done
============ Calculation of NGWF S^-1 using Hotelling algorithm ================ 
         Iteration  |  Frobenius norm and Maximum abs value    (of I-S*S_n^-1)   
               1       0.46399706E+02     0.99631082E+00
               2       0.46084372E+02     0.99264406E+00
               3       0.45502748E+02     0.98537576E+00
               4       0.44502490E+02     0.97108733E+00
               5       0.42962796E+02     0.94341721E+00
               6       0.40890757E+02     0.89120292E+00
               7       0.38359419E+02     0.79692482E+00
               8       0.35415841E+02     0.77766047E+00
               9       0.32286673E+02     0.75344557E+00
              10       0.29263132E+02     0.73634251E+00
              11       0.26090692E+02     0.71744286E+00
              12       0.22111228E+02     0.69242670E+00
              13       0.16902357E+02     0.65437638E+00
              14       0.10776904E+02     0.58938392E+00
              15       0.53141789E+01     0.48362447E+00
              16       0.22892730E+01     0.33062088E+00
              17       0.12430111E+01     0.18239653E+00
              18       0.63063386E+00     0.11198529E+00
              19       0.19618474E+00     0.42503286E-01
              20       0.23759246E-01     0.61366973E-02
              21       0.44940319E-03     0.12797386E-03
              22       0.18955510E-06     0.55654202E-07
              23       0.69176279E-13     0.11858570E-13
================================================================================
Calculating core density ...
================================= Core Density =================================
               Core den box size:   21 x  21 x  21
================================================================================
 ... done
Up spin density kernel initialisation ...... done

Writing density kernel to file "28/592nano.dkn" ... done

>>> Optimising kernel for current NGWFs:

--------------------------- Ensemble-DFT optimisation --------------------------
Running ScaLAPACK on  150 processor(s).

--------------------------------------------------------------------------------
  Iter                              Commutator    Free_energy(A=E-TS)     DeltaA
#    0                          0.001155197947   -3027.41505850049953  -3.03E+03

Step                       =       0.381966011250
Energy                     =   -3027.398437215663
Entropy (-TS)              =      -0.016621284478
Free energy (A=E-TS)       =   -3027.415058500500
Est. 0K Energy 0.5*(E+A)   =   -3027.406747858081
Residual Non-orthogonality =       0.000000000000
Residual N_electrons       =      -0.000000000358

Spin          Integrated_Ne            Fermi_level     Delta_Fermi_level
   1      2127.999999998501        -0.239107933406             -2.39E-01

                           Spin 1          
     Orb      H-eigenvalues     Occupancies
       1 |    -1.8989952912    1.0000000000 | 
                          ------
    1060 |    -0.2534836227    0.9894339172 | 
    1061 |    -0.2523089841    0.9847613189 | 
    1062 |    -0.2514549253    0.9801377436 | 
    1063 |    -0.2484154086    0.9497442774 | 
    1064 |    -0.2420942691    0.7197073183 | 
                 - Gap at zero temperature -
    1065 |    -0.2332882047    0.1373205669 | 
    1066 |    -0.2324200412    0.1079485193 | 
    1067 |    -0.2307525665    0.0667065637 | 
    1068 |    -0.2279654117    0.0287895634 | 
    1069 |    -0.2273843829    0.0240798684 | 
                          ------
    2184 |     0.5609340201    0.0000000000 | 

                       |  Abs_value |  Threshold | Converged
     Delta_Free_energy |   3.03E+03 |   1.00E-06 |        No
     Delta_Energy      |   3.03E+03 |   1.00E-04 |        No
     Delta_Entropy     |   1.66E-02 |   1.00E-04 |        No
     Commutator        |   1.16E-03 |   1.00E-05 |        No
     Delta_Fermi_level |   2.39E-01 |   1.00E-03 |        No

  Line search of the free energy minimum:
  Step_type        Step             Free_energy   Predicted_free_energy
.   Initial    0.000000    -3027.41505850049953
.    Trial1    0.381966    -3027.37284199952046
.    Trial2    0.145898    -3028.13882914805390
. Quadratic    0.188411    -3028.20588666302865    -3028.17765475704391

--------------------------------------------------------------------------------
  Iter                              Commutator    Free_energy(A=E-TS)     DeltaA
#    1                          0.000702574129   -3028.20588666302865  -7.91E-01

Step                       =       0.188410576560
Energy                     =   -3028.176067234089
Entropy (-TS)              =      -0.029819428763
Free energy (A=E-TS)       =   -3028.205886663029
Est. 0K Energy 0.5*(E+A)   =   -3028.190976948559
Residual Non-orthogonality =       0.000000000000
Residual N_electrons       =      -0.000000000177

Spin          Integrated_Ne            Fermi_level     Delta_Fermi_level
   1      2127.999999999185        -0.217187067336              2.19E-02

                           Spin 1          
     Orb      H-eigenvalues     Occupancies
       1 |    -1.9060789611    1.0000000000 | 
                          ------
    1060 |    -0.2290715276    0.9770857603 | 
    1061 |    -0.2253230148    0.9288481608 | 
    1062 |    -0.2230209678    0.8632087056 | 
    1063 |    -0.2195553907    0.6787116569 | 
    1064 |    -0.2192657406    0.6584496900 | 
                 - Gap at zero temperature -
    1065 |    -0.2158399058    0.3952253086 | 
    1066 |    -0.2137212681    0.2507882137 | 
    1067 |    -0.2101154565    0.0968226331 | 
    1068 |    -0.2094634258    0.0802516178 | 
    1069 |    -0.2070237706    0.0388166687 | 
                          ------
    2184 |     0.5872707732    0.0000000000 | 

                       |  Abs_value |  Threshold | Converged
     Delta_Free_energy |   7.91E-01 |   1.00E-06 |        No
     Delta_Energy      |   7.78E-01 |   1.00E-04 |        No
     Delta_Entropy     |   1.32E-02 |   1.00E-04 |        No
     Commutator        |   7.03E-04 |   1.00E-05 |        No
     Delta_Fermi_level |   2.19E-02 |   1.00E-03 |        No

  Line search of the free energy minimum:
  Step_type        Step             Free_energy   Predicted_free_energy
.   Initial    0.000000    -3028.20588666302865
.    Trial1    0.188411    -3028.28461459820255
.    Trial2    0.498410    -3025.37846032595462
. Quadratic    0.104839    -3028.41867345874834    -3028.42183748734351

--------------------------------------------------------------------------------
  Iter                              Commutator    Free_energy(A=E-TS)     DeltaA
#    2                          0.000543068560   -3028.41867345874834  -2.13E-01

Step                       =       0.104838987038
Energy                     =   -3028.388032679964
Entropy (-TS)              =      -0.030640779002
Free energy (A=E-TS)       =   -3028.418673458748
Est. 0K Energy 0.5*(E+A)   =   -3028.403353069356
Residual Non-orthogonality =       0.000000000000
Residual N_electrons       =       0.000000000218

Spin          Integrated_Ne            Fermi_level     Delta_Fermi_level
[...]
 C   213 -- C   219       -0.09      5.40072
 C   449 -- C   455       -0.09      5.40087
 C   248 -- C   298       -0.09      5.40095
 C    39 -- C    45       -0.09      5.40102
 C    36 -- C    50       -0.09      5.40117
 C   264 -- C   424       -0.09      5.40135
 C   289 -- C   455       -0.10      5.40144
 C   313 -- C   319       -0.09      5.40151
 C   289 -- C   299       -0.10      5.40162
 C   192 -- C   290       -0.09      5.40177
 H   165 -- Li  602       -0.03      5.40179
 C    36 -- C    98       -0.09      5.40185
 C    82 -- C   116       -0.09      5.40202
 C    54 -- C   360       -0.09      5.40207
 C    82 -- C   492       -0.09      5.40265
 C   207 -- C   225       -0.09      5.40292
 C    80 -- C   110       -0.09      5.40303
 C   364 -- C   390       -0.09      5.40313
 C   190 -- C   300       -0.09      5.40322
 C    92 -- C   122       -0.09      5.40327
 C    74 -- C   488       -0.09      5.40337
 C    76 -- C   106       -0.09      5.40353
 C    86 -- C   482       -0.09      5.40361
 C   354 -- C   384       -0.09      5.40372
 C    55 -- C    61       -0.09      5.40373
 C   201 -- C   303       -0.09      5.40387
 C    56 -- C   342       -0.10      5.40404
 C   217 -- C   327       -0.09      5.40418
 C   287 -- C   301       -0.09      5.40429
 C   115 -- C   479       -0.09      5.40450
 C    83 -- C    85       -0.08      5.40481
 C   277 -- C   299       -0.09      5.40493
 C    25 -- C   437       -0.09      5.40497
 C    53 -- C   395       -0.09      5.40510
 C    30 -- C   120       -0.09      5.40551
 C   105 -- C   111       -0.09      5.40554
 C   435 -- C   445       -0.09      5.40574
 C    99 -- C   121       -0.09      5.40574
 C   243 -- C   347       -0.09      5.40575
 C     9 -- C   433       -0.09      5.40583
 C   327 -- C   333       -0.09      5.40583
 C     3 -- C   447       -0.09      5.40584
 C   213 -- C   313       -0.09      5.40608
 C    97 -- Li  620       -0.07      5.40614
 C   262 -- C   460       -0.09      5.40630
 C   245 -- C   267       -0.09      5.40637
 C   330 -- C   382       -0.09      5.40659
 C   226 -- C   304       -0.09      5.40667
 C   209 -- C   223       -0.09      5.40675
 C   221 -- C   243       -0.09      5.40715
 C     1 -- C     7       -0.09      5.40753
 C   253 -- C   413       -0.10      5.40756
 C     9 -- C    15       -0.09      5.40764
 C   205 -- C   263       -0.09      5.40775
 H   426 -- Li  600       -0.03      5.40779
 C    11 -- C   431       -0.09      5.40793
 C    96 -- C   126       -0.09      5.40796
 C   343 -- C   506       -0.10      5.40828
 C   345 -- C   351       -0.09      5.40849
 C   420 -- C   444       -0.08      5.40878
 C    62 -- C   368       -0.09      5.40909
 C   107 -- C   475       -0.09      5.40913
 C   409 -- C   455       -0.09      5.40963
 C   330 -- C   394       -0.09      5.40975
 C   358 -- C   388       -0.09      5.40977
 C    88 -- C   547       -0.08      5.40991
 C    72 -- C   102       -0.08      5.41010
 C   113 -- C   481       -0.09      5.41015
 C    80 -- C   538       -0.08      5.41024
 C   105 -- C   477       -0.09      5.41044
 C   272 -- C   294       -0.09      5.41066
 C   261 -- C   427       -0.10      5.41084
 C   252 -- C   406       -0.10      5.41087
 C   229 -- C   373       -0.09      5.41088
 C   407 -- C   457       -0.09      5.41095
 C   111 -- C   121       -0.09      5.41115
 C   339 -- C   497       -0.10      5.41168
 C   466 -- C   538       -0.10      5.41180
 C   143 -- C   219       -0.07      5.41241
 H   539 -- Li  613       -0.03      5.41271
 C    84 -- C   114       -0.09      5.41280
 C     5 -- C    59       -0.09      5.41282
 C    39 -- C   516       -0.08      5.41288
 C    88 -- C   118       -0.09      5.41298
 C   444 -- C   492       -0.08      5.41314
 C   293 -- C   295       -0.09      5.41329
 C   342 -- C   388       -0.08      5.41330
 C    13 -- C    43       -0.09      5.41337
 C   427 -- C   445       -0.08      5.41348
 C   216 -- C   234       -0.08      5.41354
 C   210 -- C   296       -0.09      5.41359
 C   316 -- C   374       -0.09      5.41391
 C   431 -- C   441       -0.09      5.41405
 C    87 -- C    93       -0.09      5.41409
 C   191 -- C   221       -0.09      5.41415
 C   212 -- C   230       -0.08      5.41428
 C    96 -- C   567       -0.09      5.41440
 C   252 -- C   286       -0.08      5.41469
 C    85 -- C    95       -0.09      5.41490
 C   186 -- C   192       -0.09      5.41535
 C    35 -- C   497       -0.08      5.41542
 C    35 -- C    41       -0.09      5.41558
 C   231 -- C   323       -0.09      5.41569
 C   193 -- C   219       -0.09      5.41577
 C   262 -- C   292       -0.09      5.41619
 C   349 -- C   363       -0.09      5.41695
 C    75 -- C    77       -0.08      5.41699
 C    39 -- C   506       -0.08      5.41751
 C   188 -- C   286       -0.08      5.41766
 C   206 -- C   304       -0.09      5.41792
 C   413 -- C   441       -0.08      5.41796
 C   318 -- C   380       -0.08      5.41820
 C    51 -- C    57       -0.09      5.41827
 C   231 -- C   241       -0.08      5.41868
 C   182 -- C   188       -0.10      5.41875
 C    80 -- C   556       -0.08      5.41890
 C   186 -- C   212       -0.08      5.41955
 C   237 -- C   275       -0.09      5.41980
 C    71 -- C   516       -0.09      5.42005
 C   185 -- C   299       -0.09      5.42021
 C    97 -- C   123       -0.09      5.42023
 C   479 -- C   491       -0.07      5.42024
 C   181 -- C   287       -0.08      5.42085
 C   445 -- C   467       -0.08      5.42219
 C   477 -- C   485       -0.09      5.42240
 C   476 -- Li  614       -0.07      5.42242
 C   199 -- C   241       -0.08      5.42361
 C   230 -- C   318       -0.09      5.42382
 C    70 -- C   104       -0.08      5.42420
 C    67 -- C    89       -0.08      5.42434
 C    34 -- C   100       -0.09      5.42457
 C    35 -- Li  620       -0.09      5.42535
 C   204 -- C   294       -0.08      5.42565
 C   430 -- C   480       -0.08      5.42589
 C   316 -- C   390       -0.08      5.42607
 C    51 -- C   521       -0.08      5.42674
 C    73 -- C    79       -0.08      5.42706
 C    99 -- C   521       -0.08      5.42723
 C    68 -- C   556       -0.09      5.42807
 C   242 -- C   328       -0.08      5.42849
 C   229 -- C   235       -0.09      5.42981
 C   202 -- C   216       -0.08      5.43027
 C   227 -- C   309       -0.09      5.43143
 C   189 -- C   191       -0.08      5.43165
 C   220 -- C   238       -0.08      5.43180
 C   205 -- C   207       -0.08      5.43186
 C   238 -- C   314       -0.08      5.43333
 C   206 -- C   292       -0.08      5.43354
 C   385 -- C   395       -0.08      5.43375
 C   440 -- C   488       -0.08      5.43397
 C   285 -- C   287       -0.08      5.43426
 C   416 -- C   476       -0.08      5.43514
 C   202 -- C   208       -0.08      5.43559
 C    55 -- C   525       -0.08      5.43673
 C   470 -- C   547       -0.09      5.43687
 C    40 -- C   102       -0.08      5.43692
 C    81 -- C    87       -0.08      5.43753
 C   422 -- C   430       -0.08      5.43792
 C    38 -- C   104       -0.08      5.43851
 C   189 -- C   255       -0.08      5.43857
 C    77 -- C    91       -0.08      5.43866
 C   368 -- C   394       -0.08      5.43917
 C   409 -- C   485       -0.08      5.43928
 C   333 -- C   365       -0.08      5.44027
 C    65 -- C    91       -0.08      5.44104
 C    84 -- C   567       -0.08      5.44262
 C   254 -- C   284       -0.08      5.44265
 H   141 -- Li  596       -0.03      5.44361
 C   190 -- C   284       -0.08      5.44418
 C   103 -- C   525       -0.08      5.44525
 C   224 -- C   242       -0.08      5.44545
 C   481 -- C   489       -0.08      5.44625
 C   423 -- C   489       -0.08      5.44717
 C    92 -- C   564       -0.08      5.44758
 C    76 -- C   564       -0.07      5.44836
 C   233 -- C   239       -0.07      5.44844
 C   183 -- C   237       -0.07      5.44897
 H   174 -- Li  607       -0.02      5.45100
 C   185 -- C   235       -0.07      5.45155
 C    79 -- C    89       -0.08      5.45205
 C   198 -- C   204       -0.08      5.45250
 C   319 -- C   361       -0.07      5.45345
 C   377 -- C   391       -0.07      5.45526
 C   201 -- C   239       -0.07      5.45811
 C   197 -- C   199       -0.08      5.46053
 C   479 -- Li  614       -0.07      5.46620
 C    72 -- C   560       -0.08      5.46624
 H   588 -- Li  596       -0.03      5.46699
 Li  618 -- Li  620       -0.14      5.46743
 C    83 -- C   467       -0.08      5.46794
 C   204 -- Li  617       -0.06      5.46995
 C   234 -- C   332       -0.08      5.47470
 C   260 -- C   420       -0.08      5.47519
 C    67 -- C   511       -0.08      5.47870
 C    75 -- C   463       -0.08      5.47948
 C   181 -- C   183       -0.08      5.48861
 C   234 -- Li  608       -0.08      5.51115
 H   131 -- Li  617       -0.02      5.51782
 C   522 -- C   525       -0.05      5.51933
 C    34 -- Li  618       -0.06      5.52516
 C    98 -- Li  620       -0.06      5.52539
 C   395 -- Li  616       -0.07      5.53016
 C    72 -- Li  615       -0.08      5.54939
 H   590 -- Li  619       -0.02      5.56414
 H   551 -- Li  619       -0.02      5.56671
 H   581 -- Li  615       -0.02      5.56894
 H   132 -- Li  617       -0.02      5.58303
 C   498 -- C   506       -0.04      5.58336
 H   581 -- Li  610       -0.02      5.58574
 H   146 -- Li  604       -0.02      5.59139
 H   583 -- Li  600       -0.02      5.60534
 C   525 -- H   586       -0.02      5.61483
 H   582 -- Li  604       -0.02      5.61513
 H   532 -- Li  611       -0.02      5.61608
 H   554 -- Li  612       -0.02      5.62056
 C   134 -- Li  598       -0.07      5.62077
 C   181 -- Li  594       -0.08      5.62272
 H   335 -- Li  616       -0.02      5.62634
 H   590 -- Li  613       -0.01      5.62790
 C   564 -- C   566       -0.04      5.63173
 H   591 -- Li  607       -0.02      5.63304
 H   142 -- Li  596       -0.02      5.65227
 C   200 -- Li  617       -0.06      5.65697
==================================================


=================== Orbital energy and occupancy information ===================

      Total number of orbitals:    2184
        Occupancy sum (kernel):    1064.000000000
   Occupancy sum (eigenvalues):    1064.000000000
                 HOMO-LUMO gap:       0.001456361 Eh
                 Mid-gap level:      -0.070893166 Eh

                        Orbital | Energy (Eh) | Occupancy
                            1    -1.888401946   1.0000000
                        .......   ...........   .........
                         1055    -0.089994296   0.9971738
                         1056    -0.087587926   0.9939670
                         1057    -0.086214556   0.9907798
                         1058    -0.085729466   0.9892218
                         1059    -0.084387403   0.9836120
                         1060    -0.083945503   0.9811801
                         1061    -0.079469358   0.9267378
                         1062    -0.076658736   0.8393121
                         1063    -0.075035761   0.7576043
                         1064    -0.071621346   0.5156070
                        ....... -- gap at 0K -- .........
                         1065    -0.070164985   0.4010010
                         1066    -0.067421570   0.2198666
                         1067    -0.065587932   0.1368806
                         1068    -0.064134767   0.0906362
                         1069    -0.062774152   0.0610216
                         1070    -0.061667640   0.0437575
                         1071    -0.061416086   0.0405992
                         1072    -0.058988817   0.0192751
                         1073    -0.055567494   0.0066272
                         1074    -0.053090079   0.0030324
                        .......   ...........   .........
                         2184     0.791073752   0.0000000

================================================================================

===================== Writing canonical molecular orbitals =====================
| Orbital  Energy (eV)  Norm     |
| HOMO     -1.94891600  1.000000 | Writing "28/592nano_HOMO.cube" ... done
Writing "28/592nano_HOMO.dx" ... done
| LUMO     -1.90928639  1.000000 | Writing "28/592nano_LUMO.cube" ... done
Writing "28/592nano_LUMO.dx" ... done
================================================================================

================== Local Density of States (LDOS) calculation ==================
Writing "28/592nano_LDOS.txt" ...  done
================================================================================
 
===================== Density of States (DOS) calculation ======================
Writing "28/592nano_DOS.txt" ...  done
================================================================================
 
Writing bands to file "28/592nano.val_bands" ... done
 
================ Projected Density of States (pDOS) calculation ================
 
Constructing AM resolved functions  ...... done
Writing NGWF plot files in formats: CUBE DX ...  done
 
Performing overlap integrals ...  done
 
Computing pDOS weights ...  done
 
All bands spilling parameter =   3.11 %
Occupancy-weighted spilling parameter =   0.89 %
 
 => Outputting data for OptaDOS <=
 
Writing pDOS weights to file "28/592nano.val_pdos_bin" ... done
 
Writing band gradients to file "28/592nano.val_dome_bin" ... done
 
Writing Castep output cell file to "28/592nano-out.cell" ... done
 
 => Computing Gaussian smeared pDOS <= 
Writing "28/592nano_PDOS.txt" ...  done
 
 => Computing Occupancy-weighted Gaussian smeared pDOS <= 
Writing "28/592nano_occ_PDOS.txt" ...  done
  => Band centres: 
 S band centre of group 1:  -17.326661 eV
 P band centre of group 1:   -8.067753 eV
  Band centres done. <=
  => Integrated number of electrons in each AM band: 
 S num electrons of group 1:  586.309232
 P num electrons of group 1: 1522.813128
  Integrated number of electrons done. <=
================================================================================

------------------------------ TIMING INFORMATION ------------------------------
AVERAGE TIME:    8345.139s on    150 node(s)                                    
TOTAL TIME:      8345.140s on    150 node(s)                                    
================= AVERAGE TIMINGS FROM ALL NODES (CUMULATIVE) ==================
|| TAG                                    #calls    cpu time   %total  Gflops ||
|| work_imbalance                       :     1        0.00s   0.000%  ------ ||
|| sparse_set_to_garbage                :   159        0.01s   0.000%  ------ ||
|| paw_tcore_density                    :     1        0.01s   0.000%  ------ ||
|| paw_sphere_density_on_grid           :     1        0.01s   0.000%  ------ ||
|| basis_extract_function_from_box      :   407        0.02s   0.000%  ------ ||
|| paw_dij_hartree                      :   889        0.03s   0.000%  ------ ||
|| ngwfs_initialise_from_radial         :     2        0.04s   0.001%  ------ ||
|| ewald_calculate_energy               :     1        0.11s   0.001%  ------ ||
|| density_init_guess_real              :     1        0.13s   0.002%  ------ ||
|| paw_dataset_init                     :     3        0.33s   0.004%  ------ ||
|| paw_tcore_hartree_on_grid            :     1        0.37s   0.004%  ------ ||
|| pseudo_make_structure_factor         :     1        0.45s   0.005%  ------ ||
|| sparse_init                          :     1        0.93s   0.011%  ------ ||
|| restart_kernel_write                 :    15        1.07s   0.013%  ------ ||
|| dense_normal_eigensolve              :     1        1.11s   0.013%  ------ ||
|| paw_species_calc_proj_prec_mat       :     1        1.89s   0.023%  ------ ||
|| sparse_embed_hotelling_invert_embed  :    27        6.58s   0.079%  ------ ||
|| fourier_apply_box_pair               :   610        7.00s   0.084%  2.160k ||
|| sw_init                              :     1        7.52s   0.090%  ------ ||
|| ngwf_gradient_coeffs                 :    14        7.88s   0.094%  ------ ||
|| basis_copy_function_to_box           : 13482       13.80s   0.165%  ------ ||
|| augmentation_screen_dij              :   669       13.85s   0.166%  ------ ||
|| paw_dij_xc                           :   889       19.79s   0.237%  ------ ||
|| projectors_init_fftbox_recip         :    85       26.57s   0.318%  ------ ||
|| hartree_on_grid                      :   664       28.76s   0.345%  ------ ||
|| integrals_kinetic                    :    27       37.15s   0.445%  ------ ||
|| function_ops_brappd_ketppd           :    56       37.69s   0.452%  ------ ||
|| projectors_func_ovlp_box             :    28       39.47s   0.473%  ------ ||
|| eigenstates_pdos                     :     1       43.31s   0.519%  ------ ||
|| augmentation_density_on_grid         :   664       47.93s   0.574%  ------ ||
|| hamiltonian_energy_components        :     3       48.51s   0.581%  ------ ||
|| aug_nonlocal_mat                     :   875       50.58s   0.606%  ------ ||
|| sparse_trace                         :  8294       63.45s   0.760%  ------ ||
|| fourier_apply_cell_forward           :  3316       65.45s   0.784% 176.349 ||
|| fourier_apply_cell_backward          :  3317       67.37s   0.807% 171.381 ||
|| basis_dot_function_with_box          : 2.997M      81.97s   0.982%  ------ ||
|| eigenstates_calculate                :     1       83.80s   1.004%  ------ ||
|| xc_energy_potential                  :   663      118.92s   1.425%  ------ ||
|| restart_ngwfs_tightbox_output        :    13      139.19s   1.668%  ------ ||
|| sparse_product                       :  7372      201.04s   2.409%  ------ ||
|| dense_eigensolve                     :   633      220.06s   2.637%  ------ ||
|| basis_add_function_to_box            : 8.659M     229.54s   2.751%  ------ ||
|| cell_grid_extract_box_real           :  7555      296.07s   3.548%  ------ ||
|| projectors_gradient_batch            :    28      321.67s   3.855%  ------ ||
|| cell_grid_deposit_box_real           : 24617      331.04s   3.967%  ------ ||
|| integrals_locpot_mat_els_batch       :   440      371.42s   4.451%  ------ ||
|| projectors_grad_precond_batch        :    28      462.52s   5.542%  ------ ||
|| density_fftbox_deposit_to_cell       : 11288      581.00s   6.962%  ------ ||
|| edft_diag_ngwf_ham                   :   632      655.98s   7.861%  ------ ||
|| properties_calculate                 :     1      723.41s   8.669%  ------ ||
|| density_batch_row_sums               :  1328      728.13s   8.725%  ------ ||
|| potential_apply_to_ngwf_batch        :   440      813.12s   9.744%  ------ ||
|| ngwf_gradient_build_batch            :    28      866.29s  10.381%  ------ ||
|| ngwf_gradient_batch                  :    28      943.36s  11.304%  ------ ||
|| fourier_apply_box                    : 42554      999.18s  11.973%  3.422k ||
|| density_fftbox_interpolate_multiply  : 11288     1104.82s  13.239%  ------ ||
|| edft_apply_smearing_operator         :   632     1189.75s  14.257%  ------ ||
|| integrals_locpot_dbl_grid            :   220     1190.19s  14.262%  ------ ||
|| ngwf_gradient_lnv                    :    14     1253.70s  15.023%  ------ ||
|| density_batch_interp_deposit         :  1328     2164.51s  25.937%  ------ ||
|| density_on_dbl_grid                  :   664     3008.91s  36.056%  ------ ||
|| hamiltonian_lhxc_calculate           :   659     3377.43s  40.472%  ------ ||
|| edft_calculate                       :    14     5852.63s  70.132%  ------ ||
|| ngwf_cg_optimise                     :     1     7607.05s  91.155%  ------ ||
|| total_time                           :     1     8345.14s 100.000%  ------ ||
================================================================================
Overhead of generating timer report: 
- 0 ms averaging over threads,
- 21 ms ensuring consistency across MPI ranks,
- 0 ms printing in order.

Job completed: 07-07-2020 05:42 (+0100)

