 +---------------------------------------------------------------+
 |                                                               |
 |        ####### #     # ####### ####### ####### ######         |
 |        #     # ##    # #          #    #       #     #        |
 |        #     # # #   # #          #    #       #     #        |
 |        #     # #  #  # #####      #    #####   ######         |
 |        #     # #   # # #          #    #       #              |
 |        #     # #    ## #          #    #       #              |
 |        ####### #     # #######    #    ####### #              |
 |                                                               |
 |        Linear-Scaling Ab Initio Total Energy Program          |
 |                                                               |
 |          Release for academic collaborators of ODG            |
 |                                             Version 6.1.3.6   |
 |                                                               |
 +---------------------------------------------------------------+
 |                                                               |
 |  Authors:                                                     |
 |  Jacek Dziedzic, Peter D. Haynes, Nicholas D. M. Hine,        |
 |  Arash A. Mostofi, Mike C. Payne and Chris-Kriton Skylaris    |
 |                                                               |
 |  Contributors:                                                |
 |  J. Aarons, L. Andrinopoulos, P. W. Avraam, R. A. Bell,       |
 |  A. Bhandari, G. A. Bramley, R. J. Charlton, S. J. Clark,     |
 |  R. J. Clements, G. C. Constantinescu, F. Corsetti,           |
 |  N. Corsini, O. Dieguez, S. M. M. Dubois, K. K. B. Duff,      |
 |  J. M. Escartin, A. Greco, H. Helal, Q. O. Hill, L. P. Lee,   |
 |  J.-H. Li, E. B. Linscott, G. Moynihan, D. D. O`Regan,        |
 |  O. K. Okan, M. J. S. Phipps, C. J. Pickard,                  |
 |  J. C. A. Prentice, M. I. J. Probert, L. E. Ratcliff,         |
 |  M. Robinson, A. Ruiz Serrano, J. S. Spencer, E. W. Tait,     |
 |  G. Teobaldi, D. Turban, V. Vitale, K. A. Wilkinson,          |
 |  C. Weber, J. C. Womack, N. Yeung and T. J. Zuehlsdorff       |
 |                                                               |
 |                                   Copyright (c) 2004-2021     |
 |                                                               |
 |  Please cite:                                                 |
 |  "The ONETEP linear-scaling density functional theory program"|
 |   J. Chem. Phys. 152(17) 174111 (2020)                        |
 |                                                               |
 |          in all publications arising from your use of ONETEP. |
 |                                                               |
 +---------------------------------------------------------------+
 |                                                               |
 |   ONETEP is based on developments described in the following  |
 |   publications:                                               |
 |                                                               |
 |  "Nonorthogonal generalized Wannier function pseudopotential  |
 |   plane-wave method".                                         |
 |   C.-K. Skylaris, A. A. Mostofi, P. D. Haynes, O. Dieguez,    |
 |   M. C. Payne.                                                |
 |   Phys. Rev. B 66 035119 (2002).                              |
 |                                                               |
 |  "Preconditioned iterative minimization for linear-scaling    |
 |   electronic structure calculations".                         |
 |   A. A. Mostofi, P. D. Haynes, C.-K. Skylaris, M. C. Payne.   |
 |   J. Chem. Phys. 119(17), pp.8842-8848 (2003).                |
 |                                                               |
 |  "Total-energy calculations on a real space grid with         |
 |   localized functions and a plane-wave basis".                |
 |   A. A. Mostofi, C.-K. Skylaris, P. D. Haynes, M. C. Payne.   |
 |   Comput. Phys. Commun. 147, pp.788-802 (2002).               |
 |                                                               |
 |  "Accurate kinetic energy evaluation in electronic structure  |
 |   calculations with localized functions on real space grids"  |
 |   C.-K. Skylaris, A. A. Mostofi, P. D. Haynes, C. J. Pickard, |
 |   M. C. Payne.                                                |
 |   Comput. Phys. Commun. 140, pp.315-322 (2001).               |
 |                                                               |
 |  "Accurate ionic forces and geometry optimization in linear-  |
 |   scaling density-functional theory with local orbitals"      |
 |   N. D. M. Hine, M. Robinson, P. D. Haynes, C.-K. Skylaris,   |
 |   M. C. Payne, and A. A. Mostofi.                             |
 |   Phys. Rev. B 83 195102 (2011).                              |
 |                                                               |
 +---------------------------------------------------------------+

Job started: 13-12-2021 11:39 (-0000)
 
Reading parameters from file "42/592nano.dat" ...... done

If your calculation crashes here, before "Checking processes and threads..."
is displayed, then your stack size is insufficient.
If so, use "ulimit -s unlimited" at runtime.
You can disable this check with "check_stack_size F".

Checking processes and threads...
   Determining the default number of threads...
      No default threads set at compilation time: defaulting to 1.
      OpenMP library call suggests 4 threads.
      Hybrid MPI-OpenMP compilation detected.
      Number of MPI processes > 1.
      OMP_NUM_THREADS environment variable present and
      its value matches the one obtained from the OpenMP library call.
      Using this value as default.
      Default threads: 4
      Default applies to threads_max and threads_num_fftboxes.
      Settings in the input file override this default.
   ... done

   Running with 160 MPI processes.
   There are 16 MPI processes running on the same node as the root process.
   Each MPI process is using: 
               1 threads for simulation cell FFTs.
               1 threads for parallel FFT box operations.
               4 threads for loops over batched FFT box operations.
               4 threads in other parallel regions.
... done

Basic input checks...
Resetting ngwf_cg_rotate to TRUE for EDFT calculations
... done

Reading geometry and species blocks from file "42/592nano.dat" ...    
  Number of PPD points along a3 set to 1.  This is 
  the default value, it may have been provided also in the input file.
... done
 Writing xyz coordinates to file "42/592nano.xyz" ... done


--------------------------------------------------------------------------------
---------------------------------- INPUT FILE ----------------------------------
--------------------------------------------------------------------------------

task : singlepoint                                                              
do_properties : true                                                            
dx_format T                                                                     
edft T                                                                          
edft_spin_fix 3                                                                 
output_detail VERBOSE                                                           
timings_level 3                                                                 
write_xyz T                                                                     
edft_update_scheme: pulay_mix                                                   
edft_ham_diis_size: 10                                                          
edft_trial_step: 0.1                                                            
xc_functional OPTPBE                                                            
cutoff_energy 830 eV                                                            
paw T                                                                           
geom_disp_tol 0.06 bohr                                                         
geom_energy_tol 6E-6 hartree                                                    
geom_force_tol 0.012 "ha/bohr"                                                  
geom_max_iter 25                                                                
EDFT_MAXIT 30                                                                   
pdos_max_l = 2                                                                  
dos_smear  0.1 eV                                                               
popn_calculate T                                                                
PDOS_PSEUDOATOMIC T                                                             
PDOS_REDUCE_SWS F                                                               
PDOS_CONSTRUCT_BASIS F                                                          
PDOS_LOWDIN T                                                                   
PDOS_ORTH_ATOM_BLOCKS F                                                         
PDOS_LCAO_OPTIMIZE F                                                            
pdos_optados_output T                                                           
homo_plot 0                                                                     
lumo_plot 0                                                                     
homo_dens_plot -1                                                               
lumo_dens_plot -1                                                               
%BLOCK SPECIES                                                                  
C C 6 4 9.0                                                                     
H H 1 1 9.0                                                                     
Li Li 3 5 9.0                                                                   
%ENDBLOCK SPECIES                                                               
%BLOCK SPECIES_POT                                                              
C "~/pp/paw/c_pbe_abinit.paw"                                                   
H "~/pp/paw/h_pbe_abinit.paw"                                                   
Li "~/pp/paw/li_pbe_abinit.paw"                                                 
%ENDBLOCK SPECIES_POT                                                           
%BLOCK SPECIES_ATOMIC_SET                                                       
C "SOLVE conf=2s2 2p2"                                                          
H "SOLVE conf=1s1"                                                              
Li "SOLVE conf=1s2 2s1 2p0"                                                     
%ENDBLOCK SPECIES_ATOMIC_SET                                                    
%BLOCK SPECIES_LDOS_GROUPS                                                      
C                                                                               
H                                                                               
Li                                                                              
%ENDBLOCK SPECIES_LDOS_GROUPS                                                   
%BLOCK LATTICE_CART                                                             
94.486315650000      0.000000000000       0.000000000000                        
0.000000000000       94.486315650000      0.000000000000                        
0.000000000000       0.000000000000       94.486315650000                       
%ENDBLOCK LATTICE_CART                                                          
%BLOCK POSITIONS_ABS                                                            
C 42.864337 41.444631 31.555971                                                 
C 38.797830 43.756595 31.699442                                                 
C 41.536578 39.111453 31.162997                                                 
C 45.570193 41.471193 31.575650                                                 
C 37.468303 41.412254 31.375745                                                 
C 37.425714 46.080893 31.828330                                                 
C 54.939635 48.601567 31.346897                                                 
C 54.905377 53.272247 31.335816                                                 
C 53.611766 46.257815 31.464271                                                 
C 38.634985 57.821838 31.952712                                                 
C 42.655558 60.194116 31.788585                                                 
C 37.321474 55.455663 31.987971                                                 
C 53.537782 55.601899 31.440601                                                 
C 45.361177 60.214097 31.724842                                                 
C 46.941719 39.147108 31.312509                                                 
C 41.495127 43.781259 31.770971                                                 
C 34.727823 46.053563 31.628660                                                 
C 50.961236 41.549920 31.394623                                                 
C 53.577645 50.927355 31.531466                                                 
C 34.683564 50.733312 31.749830                                                 
C 41.338239 57.842127 31.995360                                                 
C 38.832045 39.111871 31.025172                                                 
C 54.981236 43.928443 31.270901                                                 
C 49.591702 43.871684 31.640083                                                 
C 37.368053 50.763808 32.004510                                                 
C 49.460051 57.916707 31.717415                                                 
C 34.624260 55.426116 31.755151                                                 
C 57.618170 48.620448 30.927064                                                 
C 50.775343 60.261872 31.391267                                                 
C 57.578758 53.275728 30.896282                                                 
C 37.255177 60.143814 31.650872                                                 
C 54.839030 57.945592 31.090873                                                 
C 50.841216 55.586634 31.730873                                                 
C 46.755246 57.892727 31.875247                                                 
C 41.259493 62.500788 31.477128                                                 
C 46.682224 62.544830 31.352364                                                 
C 46.892878 43.831755 31.740413                                                 
C 50.922546 46.229206 31.684081                                                 
C 38.744724 48.432530 32.013184                                                 
C 38.692421 53.129044 32.082205                                                 
C 49.629260 39.210016 31.225616                                                 
C 33.373585 48.367950 31.566350                                                 
C 42.917509 36.772236 30.803330                                                 
C 53.666737 41.593776 31.256158                                                 
C 34.770997 41.388461 31.273001                                                 
C 33.333385 53.072727 31.551317                                                 
C 45.605142 36.788626 30.944691                                                 
C 33.408939 43.693969 31.397164                                                 
C 58.927770 50.953212 30.664116                                                 
C 53.459512 60.258025 31.061711                                                 
C 49.367054 62.564881 31.187213                                                 
C 38.564274 62.477924 31.358534                                                 
C 50.882859 50.904766 31.794119                                                 
C 42.723190 55.511582 32.096610                                                 
C 42.820609 46.136680 31.961743                                                 
C 57.669457 43.950619 30.983036                                                 
C 58.974761 46.278494 30.726577                                                 
C 33.244400 57.761584 31.579060                                                 
C 34.542192 60.111095 31.463132                                                 
C 58.876860 55.617407 30.496422                                                 
C 49.512821 53.236873 31.893029                                                 
C 45.431937 55.538105 32.043762                                                 
C 57.514907 57.941463 30.585505                                                 
C 49.552131 48.554528 31.850660                                                 
C 41.398893 53.154434 32.147516                                                 
C 42.581505 64.821677 31.048733                                                 
C 41.446677 48.463347 32.079316                                                 
C 45.521344 46.166170 31.925232                                                 
C 45.276049 64.847080 30.978157                                                 
C 37.469091 36.772640 30.487075                                                 
C 46.810593 53.210518 32.039742                                                 
C 42.774914 50.823756 32.136498                                                 
C 46.849168 48.521550 31.981843                                                 
C 41.557498 34.442970 30.190704                                                 
C 33.443427 39.037848 30.975037                                                 
C 51.016462 36.878983 30.816488                                                 
C 55.051971 39.262782 31.003338                                                 
C 30.679996 48.329266 31.161043                                                 
C 46.990855 34.463318 30.582896                                                 
C 30.648779 53.051107 31.061671                                                 
C 30.720335 43.660938 31.173197                                                 
C 45.477516 50.853018 32.085725                                                 
C 61.620005 50.970713 30.117624                                                 
C 38.870015 34.505022 30.044936                                                 
C 34.810546 36.789455 30.633441                                                 
C 37.165016 64.810294 30.892983                                                 
C 59.030983 41.608933 30.852142                                                 
C 54.761611 62.596342 30.518061                                                 
C 50.662842 64.905942 30.640260                                                 
C 61.645025 46.284993 30.219463                                                 
C 30.553120 57.716904 31.328842                                                 
C 61.564079 55.605634 29.946135                                                 
C 33.142941 62.416990 31.059828                                                 
C 41.162667 67.135207 30.665566                                                 
C 58.804318 60.290550 30.068459                                                 
C 46.589762 67.183879 30.470970                                                 
C 49.667239 34.554653 30.667460                                                 
C 29.425128 45.991058 31.017806                                                 
C 62.904625 48.627449 29.824639                                                 
C 53.682202 36.962833 30.789458                                                 
C 62.889556 53.302872 29.923145                                                 
C 57.695544 39.319770 30.917593                                                 
C 29.306277 50.677919 31.146738                                                 
C 42.979107 32.136983 29.981393                                                 
C 34.475064 64.745356 30.765541                                                 
C 38.509213 67.096724 30.765212                                                 
C 29.323682 55.356104 31.060264                                                 
C 30.744721 39.059813 30.981415                                                 
C 45.627126 32.161401 30.231306                                                 
C 29.431676 41.302616 31.058211                                                 
C 57.387548 62.580373 30.124387                                                 
C 53.383048 64.942439 30.613562                                                 
C 49.277095 67.156494 30.383415                                                 
H 37.835893 32.737980 29.664817                                                 
H 33.778631 34.995025 30.383163                                                 
C 62.978208 43.931197 30.301286                                                 
C 61.716449 41.678745 30.622951                                                 
C 62.782286 57.972088 29.434957                                                 
C 29.194807 60.034933 31.300759                                                 
C 30.452722 62.320103 31.188504                                                 
C 61.427868 60.240007 29.469053                                                 
C 42.528305 69.419163 30.176444                                                 
C 45.165096 69.432164 30.058497                                                 
H 64.948468 53.318935 29.588436                                                 
H 64.960596 48.636086 29.440632                                                 
H 50.718230 32.798440 30.199749                                                 
H 41.932503 30.338337 29.809576                                                 
H 29.737170 37.238828 30.873094                                                 
H 27.369309 45.949028 30.579972                                                 
H 37.451452 68.882983 30.580575                                                 
H 33.409893 66.531783 30.592269                                                 
H 58.745139 37.519757 30.816683                                                 
H 27.239148 55.346527 30.855902                                                 
H 46.728754 30.387536 30.172668                                                 
H 54.747588 35.217823 30.304407                                                 
H 27.348158 41.306994 31.020928                                                 
H 27.364912 50.669484 30.355845                                                 
H 58.343996 64.350637 29.544793                                                 
H 50.264244 68.918527 29.834634                                                 
H 65.052360 43.955240 30.094003                                                 
H 62.758886 39.874887 30.655709                                                 
H 54.274741 66.583181 29.661841                                                 
H 64.813785 57.965077 28.982777                                                 
H 29.391732 64.114476 31.180628                                                 
H 27.108818 59.970982 31.274782                                                 
H 41.439091 71.166703 29.878078                                                 
H 62.392769 62.039183 29.058159                                                 
H 46.180846 71.212277 29.691737                                                 
C 44.221384 39.063770 37.443869                                                 
C 36.077980 43.726680 37.429883                                                 
C 40.142244 41.412644 37.517378                                                 
C 41.517132 39.087645 37.445416                                                 
C 49.621993 39.083253 37.183114                                                 
C 37.453915 41.413355 37.317477                                                 
C 48.255480 41.423862 37.411430                                                 
C 53.679309 41.460758 37.129162                                                 
C 45.558115 41.412966 37.521971                                                 
C 52.310167 43.776191 37.321467                                                 
C 36.042774 48.384351 37.755895                                                 
C 37.412152 46.062451 37.686029                                                 
C 45.575738 36.721074 37.364523                                                 
C 35.998795 53.063002 37.934461                                                 
C 33.338568 48.363244 37.627910                                                 
C 53.649851 46.119881 37.344144                                                 
C 52.349201 39.115929 37.100767                                                 
C 33.293465 53.053633 37.895396                                                 
C 56.343926 46.137786 37.082975                                                 
C 33.382123 43.694281 37.259215                                                 
C 49.596587 43.768748 37.488754                                                 
C 37.352491 55.400923 37.933769                                                 
C 48.287116 36.720267 37.230185                                                 
C 41.487340 43.749940 37.688455                                                 
C 37.386241 50.726961 37.910042                                                 
C 35.993200 57.727024 37.840134                                                 
C 56.381907 41.456271 36.936453                                                 
C 56.317984 50.839707 37.137717                                                 
C 53.623722 50.812579 37.447163                                                 
C 53.603637 55.507014 37.469381                                                 
C 31.939788 50.704676 37.809915                                                 
C 45.480598 60.140217 37.733159                                                 
C 41.431646 57.757256 37.844125                                                 
C 57.709745 43.801295 36.856768                                                 
C 32.008271 46.009600 37.431131                                                 
C 52.239998 57.831281 37.524133                                                 
C 44.193987 43.750536 37.686038                                                 
C 48.171578 60.167893 37.673609                                                 
C 40.119173 46.075924 37.777192                                                 
C 40.065497 60.087660 37.700889                                                 
C 49.537667 57.820604 37.679987                                                 
C 52.292410 48.461401 37.523907                                                 
C 57.660947 48.510371 36.935649                                                 
C 40.073840 55.419245 37.948128                                                 
C 56.309061 55.521580 37.226763                                                 
C 52.266460 53.150210 37.575944                                                 
C 44.137142 57.784406 37.838462                                                 
C 40.170629 36.754582 37.305391                                                 
C 31.913828 55.392618 37.809264                                                 
C 44.120518 62.470388 37.596051                                                 
C 36.093814 39.076683 36.958273                                                 
C 33.278511 57.717218 37.692573                                                 
C 37.369483 60.058852 37.796174                                                 
C 57.640333 53.184473 36.994720                                                 
C 41.413232 62.422765 37.482985                                                 
C 48.242416 46.097515 37.667604                                                 
C 40.083913 50.746743 37.941702                                                 
C 48.206760 55.473366 37.789894                                                 
C 44.233427 34.324586 37.438231                                                 
C 53.745246 36.758800 37.064431                                                 
C 53.579484 60.197088 37.366249                                                 
C 49.588027 48.450446 37.684799                                                 
C 49.495360 62.524884 37.572052                                                 
C 41.438979 53.093581 37.963141                                                 
C 45.496541 55.452598 37.881357                                                 
C 49.567681 53.136118 37.739348                                                 
C 45.534632 46.092443 37.753774                                                 
C 41.462202 48.417593 37.880663                                                 
C 32.032003 41.344170 36.913372                                                 
C 37.469582 36.759125 37.207932                                                 
C 49.663464 34.308421 37.213666                                                 
C 41.523933 34.401151 37.211014                                                 
C 57.652629 57.858755 37.175167                                                 
C 57.772798 39.104907 36.742596                                                 
C 33.443787 39.067331 36.804288                                                 
C 45.441369 64.829286 37.545337                                                 
C 44.147423 53.107906 37.921800                                                 
C 48.222824 50.783565 37.785155                                                 
C 29.193319 50.675485 37.936853                                                 
C 44.168487 48.428236 37.854099                                                 
C 60.383096 48.519535 36.680108                                                 
C 52.196678 62.544358 37.436098                                                 
C 45.515658 50.773110 37.870333                                                 
C 60.436254 43.795357 36.606385                                                 
C 29.257045 45.950194 37.549513                                                 
C 56.289711 60.206649 37.289916                                                 
C 56.408050 36.783693 36.887237                                                 
C 29.156701 55.417792 37.738408                                                 
C 48.142515 64.858250 37.596790                                                 
C 60.319134 53.213554 36.549354                                                 
C 52.380686 34.425557 37.491860                                                 
C 36.022841 62.391565 37.678082                                                 
C 31.892582 60.038572 37.426037                                                 
C 40.072122 64.767795 37.205493                                                 
C 45.619448 32.010878 37.211099                                                 
C 27.818559 53.015908 38.020726                                                 
C 61.715827 46.178290 36.674657                                                 
C 27.919823 48.306298 37.965575                                                 
C 61.653845 50.889196 36.505252                                                 
C 48.324385 32.016788 37.022064                                                 
C 29.348158 41.354070 36.885351                                                 
C 33.276347 62.388569 37.743444                                                 
C 60.435940 39.160756 36.508963                                                 
C 37.392659 64.688242 37.348997                                                 
C 60.398792 57.885092 36.970732                                                 
H 36.442394 34.954392 36.901196                                                 
H 40.450114 32.600288 37.190240                                                 
C 61.745979 41.470322 36.404108                                                 
C 44.047924 67.211542 37.511849                                                 
H 32.446133 37.268647 36.459329                                                 
C 61.660667 55.538257 36.558550                                                 
C 27.999415 43.605713 37.307430                                                 
C 41.367298 67.109527 37.252677                                                 
H 57.431317 34.983263 36.575160                                                 
C 27.870441 57.737909 37.490022                                                 
C 29.227745 60.013559 37.314067                                                 
H 53.434897 32.608935 37.524721                                                 
C 53.555157 64.933835 37.618749                                                 
H 44.601343 30.212650 36.922401                                                 
H 25.737230 53.008410 37.844905                                                 
C 57.688041 62.602985 37.368061                                                 
C 49.491561 67.267777 37.693731                                                 
H 63.810015 46.156515 36.768823                                                 
H 28.341950 39.556355 36.603786                                                 
H 25.862291 48.269900 38.309464                                                 
H 63.743477 50.958776 36.215399                                                 
H 49.358993 30.211769 36.781832                                                 
H 61.475455 37.358553 36.387492                                                 
H 32.203339 64.057648 37.047418                                                 
H 36.429956 66.472729 36.799745                                                 
H 63.818265 41.488654 36.203952                                                 
H 63.705370 55.536983 36.088849                                                 
H 25.917071 43.566272 37.407557                                                 
H 25.784007 57.744627 37.379611                                                 
C 61.706414 60.244025 36.899657                                                 
H 40.278649 68.893104 37.190346                                                 
C 45.413765 69.539703 37.483892                                                 
H 28.203528 61.816964 37.063978                                                 
C 52.191566 67.223376 37.809062                                                 
C 56.255214 64.896932 37.716994                                                 
C 60.350417 62.577850 37.152023                                                 
C 48.099513 69.550521 37.630714                                                 
H 63.791612 60.239444 36.856713                                                 
H 44.344256 71.325570 37.550417                                                 
H 53.222568 69.004494 38.150236                                                 
H 57.283892 66.678930 38.065218                                                 
H 61.400700 64.374794 37.214944                                                 
H 49.112907 71.364099 37.733875                                                 
H 28.565945 37.972506 44.205027                                                 
H 40.363727 30.128910 44.660535                                                 
H 32.498720 35.289399 43.900715                                                 
H 36.443481 32.687374 44.504364                                                 
H 45.087394 29.848282 44.536258                                                 
H 26.468717 42.261196 44.187369                                                 
C 41.521132 31.853752 44.508693                                                 
C 29.739399 39.690578 44.111904                                                 
H 61.888078 37.989579 43.419101                                                 
C 33.657663 37.024993 44.039365                                                 
C 37.592627 34.428983 44.394878                                                 
C 44.136777 31.696457 44.426184                                                 
H 49.274109 31.924420 44.507555                                                 
H 64.564332 41.975238 43.285390                                                 
C 28.546519 42.124354 44.162723                                                 
H 65.531821 56.098766 43.750067                                                 
H 26.837546 47.033566 44.123339                                                 
H 27.760475 60.986681 44.847847                                                 
H 53.437791 33.955511 44.302088                                                 
H 57.650957 35.962333 44.095955                                                 
H 30.436790 64.935865 44.749896                                                 
H 27.238709 51.674711 44.800762                                                 
H 65.254661 51.357510 43.439574                                                 
H 43.167473 71.180898 44.374214                                                 
H 63.428545 60.342677 44.170362                                                 
H 27.529575 56.218581 45.132574                                                 
H 64.894717 46.701011 43.258947                                                 
C 32.399530 39.445887 44.054556                                                 
C 40.286146 34.230271 44.498764                                                 
H 47.955567 70.847247 44.480633                                                 
C 36.371739 36.799317 44.193501                                                 
H 38.895337 69.124548 44.172233                                                 
C 60.983753 39.860942 43.494241                                                 
C 62.491658 42.113232 43.411815                                                 
H 34.674989 67.104268 44.392990                                                 
C 48.338389 33.771148 44.273278                                                 
C 63.449755 56.223023 43.800715                                                 
C 28.910034 46.850842 44.365543                                                 
H 59.488960 62.961195 44.485995                                                 
C 29.848315 60.839766 44.750315                                                 
C 45.655546 33.907734 44.336889                                                 
H 51.833062 68.149942 44.311306                                                 
H 55.624380 65.514645 44.652487                                                 
C 30.016280 44.381629 44.131967                                                 
C 31.360061 63.078178 44.631791                                                 
C 52.522703 35.822960 44.003743                                                 
C 62.269648 58.612763 44.034265                                                 
C 56.740297 37.818755 43.687189                                                 
C 44.079597 69.308146 44.387736                                                 
C 29.331732 51.506661 44.721281                                                 
C 63.168684 51.513407 43.467776                                                 
C 29.609141 56.135035 44.826856                                                 
C 62.816594 46.832280 43.363914                                                 
C 46.781639 69.127372 44.507218                                                 
C 49.823550 35.959731 44.112903                                                 
C 58.299657 40.020376 43.549426                                                 
C 39.812365 67.253569 44.172518                                                 
C 54.036239 38.023916 43.631618                                                 
C 30.443061 49.080811 44.489893                                                 
C 61.370233 44.536337 43.441425                                                 
C 35.573403 65.215922 44.257988                                                 
C 41.782019 36.509508 44.186466                                                 
C 62.004964 53.988666 43.683844                                                 
C 33.954053 41.731746 43.965932                                                 
C 31.020250 58.415507 44.562051                                                 
C 45.400818 50.388827 43.594678                                                 
C 30.814726 53.731071 44.827187                                                 
C 37.878625 39.103128 44.004934                                                 
C 61.681478 49.263309 43.428469                                                 
C 46.918019 52.632340 43.617344                                                 
C 58.348835 61.212060 44.341471                                                 
C 42.701571 50.571755 43.651970                                                 
C 46.589779 47.953472 43.555113                                                 
C 44.463613 36.346750 44.108926                                                 
C 34.009242 62.958669 44.341948                                                 
C 50.644882 66.434027 44.314956                                                 
C 42.539901 67.140872 44.269273                                                 
C 32.768909 44.186813 44.052152                                                 
C 54.460965 63.787447 44.500489                                                 
C 59.593451 58.809426 44.129210                                                 
C 45.728217 55.063086 43.686659                                                 
C 49.622994 52.450783 43.599955                                                 
C 41.193008 48.312110 43.652658                                                 
C 45.080908 45.704383 43.565549                                                 
C 38.277305 65.054340 44.161661                                                 
C 41.518251 53.006672 43.744393                                                 
C 49.294347 47.775766 43.546195                                                 
C 47.982623 66.695665 44.391129                                                 
C 40.580059 38.935633 43.951970                                                 
C 36.657780 41.537022 43.875480                                                 
C 42.374419 45.874348 43.601388                                                 
C 43.024957 55.258279 43.753259                                                 
C 50.817054 50.021571 43.555848                                                 
C 48.638440 38.425189 43.881975                                                 
C 55.667409 61.398814 44.411909                                                 
C 33.154241 48.885029 44.279420                                                 
C 52.844469 40.489800 43.559383                                                 
C 57.073447 42.482039 43.511051                                                 
C 51.804883 64.028078 44.147279                                                 
C 58.594975 44.746953 43.530384                                                 
C 45.947490 38.595674 43.859552                                                 
C 46.271085 43.275485 43.582875                                                 
C 38.498599 48.494313 43.775948                                                 
C 34.294406 46.431620 44.028643                                                 
C 33.483079 53.556421 44.420332                                                 
C 50.480488 45.344031 43.550022                                                 
C 38.823507 53.194856 43.879171                                                 
C 51.137089 54.690704 43.674236                                                 
C 40.867066 43.625165 43.653966                                                 
C 50.148730 40.663948 43.660165                                                 
C 47.244596 57.304927 43.749809                                                 
C 33.751959 58.235565 44.346378                                                 
C 59.248848 54.142805 43.706248                                                 
C 42.072447 41.185087 43.713889                                                 
C 38.171418 43.799420 43.744703                                                 
C 48.959657 43.104411 43.572894                                                 
C 44.758067 41.018331 43.683692                                                 
C 58.934561 49.465620 43.516077                                                 
C 37.330850 50.943794 43.927458                                                 
C 35.249441 60.491126 44.226052                                                 
C 36.991088 46.239695 43.819470                                                 
C 34.650922 51.131146 44.203453                                                 
C 54.371900 42.710596 43.512700                                                 
C 53.515053 49.827976 43.555255                                                 
C 49.944430 57.109227 43.765508                                                 
C 43.722356 64.615118 44.229483                                                 
C 41.843065 57.690360 43.872375                                                 
C 58.052211 56.551576 43.903468                                                 
C 34.948860 55.816729 44.241472                                                 
C 53.188892 45.152193 43.550223                                                 
C 57.410740 47.189527 43.553924                                                 
C 39.456368 62.566966 44.109516                                                 
C 37.639047 55.636765 44.005912                                                 
C 57.740574 51.906886 43.587062                                                 
C 54.688368 47.396569 43.559878                                                 
C 46.437178 64.417446 44.215362                                                 
C 53.848188 54.501718 43.687105                                                 
C 55.040027 52.086334 43.592238                                                 
C 39.130361 57.883246 43.976366                                                 
C 46.051730 59.734512 43.867757                                                 
C 37.938647 60.312810 44.081679                                                 
C 54.153597 59.156661 44.068701                                                 
C 43.362698 59.922470 43.937458                                                 
C 50.270220 61.765751 44.012304                                                 
C 42.194543 62.379529 44.101931                                                 
C 51.460144 59.349920 43.942389                                                 
C 55.359772 56.739501 43.874486                                                 
C 47.580784 61.977712 44.004371                                                 
H 43.839674 29.862328 50.298417                                                 
H 28.006127 39.528703 51.561793                                                 
H 48.558861 29.712093 50.216869                                                 
H 60.876983 36.437287 51.116669                                                 
H 63.292905 40.488113 51.452546                                                 
H 25.737700 43.673883 51.822731                                                 
H 28.449740 61.754797 51.767198                                                 
H 25.955339 57.694594 51.726386                                                 
H 36.059709 34.739851 51.186787                                                 
H 39.907473 32.305466 50.426092                                                 
H 32.044633 37.141269 51.522140                                                 
H 63.541552 49.788011 51.134903                                                 
H 36.665391 66.107730 52.029316                                                 
H 63.772984 59.033656 51.956980                                                 
H 44.823745 70.558957 52.583391                                                 
H 63.440839 45.174349 51.137664                                                 
H 32.594062 63.914866 51.947416                                                 
H 52.629571 31.904567 50.316868                                                 
H 56.724652 34.165518 50.929840                                                 
H 63.642116 54.392456 51.528614                                                 
H 61.504483 63.184318 52.284101                                                 
H 40.711743 68.359900 52.079914                                                 
H 49.557195 70.498961 52.445856                                                 
H 25.877681 53.021885 51.642719                                                 
H 25.878240 48.377139 52.170674                                                 
C 44.955571 31.614581 50.159470                                                 
C 47.545375 31.530373 50.113131                                                 
C 29.070952 41.313295 51.421957                                                 
C 59.889973 38.257132 50.893048                                                 
C 27.801288 43.625466 51.546697                                                 
C 61.238797 40.521310 51.100905                                                 
C 28.029089 57.663769 51.545072                                                 
C 29.420756 59.924457 51.569178                                                 
H 57.548042 65.644036 52.149645                                                 
H 53.590398 68.109717 52.065179                                                 
C 40.992574 34.077261 50.243425                                                 
C 37.055703 36.502519 50.628814                                                 
C 33.061277 38.877029 50.929993                                                 
C 61.717026 59.137342 51.639377                                                 
C 45.832299 68.794740 52.133890                                                 
C 60.458126 61.448015 51.814204                                                 
C 51.650741 33.747731 50.206967                                                 
C 48.475640 68.767033 52.039817                                                 
C 55.749854 35.985000 50.706295                                                 
C 61.377513 45.218247 50.822331                                                 
C 61.527479 49.863989 50.569020                                                 
C 33.537992 62.156168 51.316338                                                 
C 37.619278 64.382638 51.324273                                                 
C 27.893352 48.333554 51.642470                                                 
C 27.936124 52.989557 51.303749                                                 
C 61.631055 54.491528 50.960258                                                 
C 41.709852 66.582257 51.646922                                                 
C 43.628687 33.967882 50.078505                                                 
C 49.005770 33.804101 50.030524                                                 
C 31.732074 41.201323 51.017571                                                 
C 57.193165 38.240906 50.622150                                                 
C 29.129872 45.967262 51.354778                                                 
C 60.016950 42.901423 50.795370                                                 
C 29.266787 55.290896 51.177769                                                 
C 39.703190 36.387491 50.243726                                                 
C 32.076216 59.911514 51.160723                                                 
C 35.728585 38.807347 50.652399                                                 
C 53.065149 35.996858 50.384885                                                 
C 56.481651 63.915909 51.682384                                                 
C 52.517040 66.376004 51.644627                                                 
C 29.208865 50.653255 51.304522                                                 
C 45.365308 50.309302 49.359051                                                 
C 60.388653 56.869708 51.063860                                                 
C 60.144371 47.554832 50.632679                                                 
C 44.394581 66.573641 51.634552                                                 
C 36.195516 62.110286 51.157735                                                 
C 60.260978 52.233030 50.655934                                                 
C 40.308132 64.351037 51.349551                                                 
C 57.782177 61.610766 51.452282                                                 
C 49.837557 66.481287 51.587141                                                 
C 44.065162 52.681578 49.457219                                                 
C 48.078308 50.239772 49.356574                                                 
C 43.957392 47.999399 49.366015                                                 
C 53.842143 64.045567 51.447678                                                 
C 45.481035 54.988939 49.554973                                                 
C 49.491088 52.549709 49.445637                                                 
C 45.039451 36.269589 49.859702                                                 
C 41.355402 52.738598 49.558237                                                 
C 49.370936 47.863088 49.363201                                                 
C 47.715899 36.186586 49.862857                                                 
C 33.102645 43.538906 50.637902                                                 
C 41.253433 48.061162 49.469886                                                 
C 45.260112 45.622327 49.351723                                                 
C 31.812945 45.897909 50.794949                                                 
C 55.921144 40.644290 50.227464                                                 
C 57.321568 42.948531 50.298807                                                 
C 31.969358 55.252460 50.739718                                                 
C 33.358037 57.546472 50.694571                                                 
C 48.194752 54.923582 49.555754                                                 
C 39.950149 50.428288 49.574100                                                 
C 47.961933 45.549655 49.353452                                                 
C 51.798564 38.404818 49.994383                                                 
C 41.081312 38.704225 49.894751                                                 
C 37.094106 41.136893 50.146774                                                 
C 57.695783 56.975756 50.637060                                                 
C 31.896208 50.584923 50.699475                                                 
C 45.713075 64.245429 51.050027                                                 
C 57.436339 47.634982 50.144169                                                 
C 56.402824 59.327672 50.827193                                                 
C 37.480192 59.769828 50.559702                                                 
C 48.409664 64.193828 51.050449                                                 
C 57.562889 52.325311 50.178840                                                 
C 41.604660 62.006934 50.727966                                                 
C 40.053044 55.104037 49.768583                                                 
C 44.183393 57.350042 49.797674                                                 
C 52.199120 52.477141 49.568167                                                 
C 52.073868 47.783053 49.489463                                                 
C 39.847209 45.745490 49.588305                                                 
C 49.123728 38.484611 49.747440                                                 
C 43.855387 43.317045 49.444147                                                 
C 43.751065 38.639859 49.725439                                                 
C 35.786791 43.483892 50.151819                                                 
C 53.221778 40.711887 49.900273                                                 
C 33.185140 48.228563 50.459993                                                 
C 33.261151 52.890603 50.426487                                                 
C 39.766467 41.071052 49.832963                                                 
C 41.469187 57.401768 49.909482                                                 
C 56.046367 45.326710 49.964711                                                 
C 53.483931 50.094860 49.598004                                                 
C 41.152214 43.380195 49.573530                                                 
C 36.060708 57.500950 50.355160                                                 
C 52.423876 61.751998 50.844109                                                 
C 37.244725 50.480717 49.816607                                                 
C 56.177474 50.017770 49.906438                                                 
C 49.250220 43.169970 49.449704                                                 
C 40.174388 59.740540 50.344954                                                 
C 49.610745 57.221453 49.819647                                                 
C 56.298566 54.687550 50.147047                                                 
C 44.301936 61.971313 50.567375                                                 
C 45.150933 40.948442 49.522314                                                 
C 37.155333 45.797543 49.854918                                                 
C 37.347649 55.150437 49.990576                                                 
C 53.360207 45.396418 49.618005                                                 
C 47.841396 40.869849 49.532541                                                 
C 35.850876 48.171095 49.990182                                                 
C 51.950950 43.087112 49.602789                                                 
C 35.946162 52.842853 50.026326                                                 
C 45.602111 59.641972 50.085616                                                 
C 53.712473 59.420598 50.487915                                                 
C 49.720550 61.843389 50.615727                                                 
C 53.607696 54.780833 49.834284                                                 
C 48.311232 59.578591 50.105873                                                 
C 52.316810 57.146856 49.983653                                                 
Li 59.734345 41.363165 39.976154                                                
Li 31.805863 60.705062 41.183931                                                
Li 30.636215 42.015224 40.719413                                                
Li 46.486058 67.543516 40.842011                                                
Li 59.779906 60.167197 40.453826                                                
Li 54.477381 62.393717 40.745976                                                
Li 41.165374 64.902769 40.925692                                                
Li 39.485553 35.374654 40.835659                                                
Li 29.000656 54.181381 41.455976                                                
Li 30.868489 47.957457 40.853201                                                
Li 50.959277 37.580129 40.572090                                                
Li 62.593754 53.228004 39.844208                                                
Li 62.627208 52.519926 47.436066                                                
Li 59.838485 46.992263 40.225946                                                
Li 35.132683 38.594397 40.676571                                                
Li 46.722436 33.694993 40.539440                                                
Li 55.438594 35.468441 40.585010                                                
Li 34.905370 64.841751 40.523958                                                
Li 56.361778 64.424993 33.694005                                                
Li 60.224116 47.077137 46.808291                                                
Li 51.497461 67.098130 33.848314                                                
Li 51.740950 64.711638 47.971642                                                
Li 34.856991 64.379048 48.142610                                                
Li 40.891569 64.884742 47.534798                                                
Li 59.747835 59.809208 48.014125                                                
Li 46.667102 67.631375 48.277395                                                
Li 28.253560 49.024084 47.796706                                                
Li 59.789580 40.782485 47.261451                                                
Li 34.159082 36.394845 47.892296                                                
Li 27.852379 48.037718 34.017447                                                
Li 43.953795 67.975842 33.727078                                                
Li 39.431977 35.735828 33.709049                                                
Li 61.093294 58.381565 33.138368                                                
Li 29.894540 43.210660 47.908357                                                
Li 52.407741 34.425192 33.582601                                                
Li 28.950390 53.189667 34.385770                                                
Li 62.905253 48.300147 33.623778                                                
Li 54.987328 37.094428 47.151332                                                
Li 29.285196 58.493529 47.994495                                                
Li 34.865045 63.962731 34.323753                                                
Li 43.739774 33.097709 33.738952                                                
Li 34.494480 37.244040 33.744600                                                
%ENDBLOCK POSITIONS_ABS                                                         

--------------------------------------------------------------------------------
-------------------------------- END INPUT FILE --------------------------------
--------------------------------------------------------------------------------


 
<<<<<<<<<<<<<<<<<<<<<<<<<<<<<<<<< Full system >>>>>>>>>>>>>>>>>>>>>>>>>>>>>>>>>>
<<<<<<<<<<<<<<<<<<<<<<<<<<< PAW Dataset information >>>>>>>>>>>>>>>>>>>>>>>>>>>
File: ~/pp/paw/c_pbe_abinit.paw; rc = 1.25 bohr; shape type =  3; rshape = 1.25 bohr;
  Atomic number:  6;  ionic charge:  4.000000
    Partial Wave 1: l = 0
    Partial Wave 2: l = 0
    Partial Wave 3: l = 1
    Partial Wave 4: l = 1
  Core charge supplied for Nonlinear Core Corrections
File: ~/pp/paw/h_pbe_abinit.paw; rc = 0.90 bohr; shape type =  3; rshape = 0.90 bohr;
  Atomic number:  1;  ionic charge:  1.000000
    Partial Wave 1: l = 0
    Partial Wave 2: l = 0
File: ~/pp/paw/li_pbe_abinit.paw; rc = 1.42 bohr; shape type =  3; rshape = 1.42 bohr;
  Atomic number:  3;  ionic charge:  3.000000
    Partial Wave 1: l = 0
    Partial Wave 2: l = 0
    Partial Wave 3: l = 0
    Partial Wave 4: l = 1
    Partial Wave 5: l = 1
<<<<<<<<<<<<<<<<<<<<<<<<<<<<<<<<<<<<<<< >>>>>>>>>>>>>>>>>>>>>>>>>>>>>>>>>>>>>>>

-------------------------- Atom counting information ---------------------------
Symbol    Natoms    Nngwfs    Nprojs
  C        484      1936      3872
  H        108       108       216
  Li        42       210       378
.......   ......    ......    ......
Totals:    634      2254      4466
--------------------------------------------------------------------------------

=============================== PSINC grid sizes ===============================
                      Simulation cell:  189 x 189 x 189
                              FFT-box:  117 x 117 x 117
                                  PPD:    7 x   7 x   1
Grid space d1=  0.499927596032a0 (KE cutoff=  30.39413Eh = 827.06648eV)
Grid space d2=  0.499927596032a0 (KE cutoff=  30.39413Eh = 827.06648eV)
Grid space d3=  0.499927596032a0 (KE cutoff=  30.39413Eh = 827.06648eV)
================================================================================
  
WARNING in cell_grid_distribute:
Average of less than one 23-slab per proc, so workload cannot be
equally balanced between procs.

********************* Fourier parallelisation information **********************
       Coarse grid (whole simulation cell) dimensions:    189   189   189
          Real-space ('12') slabs/proc (min max mean):      1     2     1
         Recip-space ('23') slabs/proc (min max mean):      0     1     0
********************************************************************************

********************* Fourier parallelisation information **********************
       Double grid (whole simulation cell) dimensions:    378   378   378
          Real-space ('12') slabs/proc (min max mean):      2     3     2
         Recip-space ('23') slabs/proc (min max mean):      1     2     1
********************************************************************************

Atom SCF Calculation for C  : Z (AE atom) =   6 : Z (PS atom) =   4
Config String: 2s2 2p2
Orbitals (num,occ):  2     2.00 2.00
Orbitals   (num,l):  2        0    1
Real-space Grid (nr,dr,rmax): 1377    0.0065406977    9.0000000000
Spherical Bessel Basis (nsws,lmax,cutoff):   37    2  183.0099912382
Confining potential (l,width,scale):  0    3.0000000000  100.0000000000
Confining potential (l,width,scale):  1    3.0000000000  100.0000000000
  1         -5.4795186097   -1.3252230651    4.5135247139   -1.6370402178
  2         -5.4480873667   -1.4027986130    4.4305957006   -1.6109824140
  3         -5.4553175168   -1.4212842775    4.4102621601   -1.6059044058
  4         -5.4627851864   -1.4247099971    4.4065125496   -1.6052912254
  5         -5.4662317525   -1.4266823431    4.4043718731   -1.6049357348
  6         -5.4679531179   -1.4277361345    4.4032352159   -1.6047498153
  7         -5.4688370531   -1.4282876632    4.4026436340   -1.6046546171
  8         -5.4692962224   -1.4285743132    4.4023378281   -1.6046060967
  9         -5.4695360875   -1.4287229388    4.4021801230   -1.6045813828
 10         -5.4696617783   -1.4287999625    4.4020988354   -1.6045687883
 11         -5.4697277645   -1.4288398966    4.4020569195   -1.6045623641
 12         -5.4697624500   -1.4288606199    4.4020352864   -1.6045590836
 13         -5.4697806994   -1.4288713865    4.4020241086   -1.6045574064
 14         -5.4697903086   -1.4288769875    4.4020183254   -1.6045565478
 15         -5.4697953717   -1.4288799052    4.4020153292   -1.6045561077
 16         -5.4697980412   -1.4288814272    4.4020137746   -1.6045558818
 17         -5.4697994496   -1.4288822223    4.4020129668   -1.6045557657
 18         -5.4698001930   -1.4288826382    4.4020125465   -1.6045557059
 19         -5.4698005858   -1.4288828561    4.4020123274   -1.6045556751
 20         -5.4698007933   -1.4288829704    4.4020122131   -1.6045556592
 21         -5.4698009031   -1.4288830304    4.4020121533   -1.6045556509
 22         -5.4698009612   -1.4288830620    4.4020121220   -1.6045556467
Atom SCF converged after  22 iterations to a total energy of     -5.46980096

Atom SCF Calculation for H  : Z (AE atom) =   1 : Z (PS atom) =   1
Config String: 1s1
Orbitals (num,occ):  1     1.00
Orbitals   (num,l):  1        0
Real-space Grid (nr,dr,rmax): 1377    0.0065406977    9.0000000000
Spherical Bessel Basis (nsws,lmax,cutoff):   37    1  183.0099912382
Confining potential (l,width,scale):  0    3.0000000000  100.0000000000
  1         -0.3687944832   -0.2607687933    0.2820952946   -0.2613406499
  2         -0.4328656062   -0.2590521405    0.2895573663   -0.2701762133
  3         -0.4633856573   -0.2560091938    0.2934204754   -0.2757429988
  4         -0.4750266404   -0.2549676794    0.2946557510   -0.2779015032
  5         -0.4793045155   -0.2546870695    0.2949704774   -0.2786577123
  6         -0.4808919118   -0.2546234645    0.2950332622   -0.2789201171
  7         -0.4814942533   -0.2546130669    0.2950388368   -0.2790132353
  8         -0.4817280090   -0.2546133926    0.2950352123   -0.2790473458
  9         -0.4818204053   -0.2546148712    0.2950319888   -0.2790602287
 10         -0.4818574273   -0.2546158825    0.2950301416   -0.2790652181
 11         -0.4818724050   -0.2546164247    0.2950292178   -0.2790671871
 12         -0.4818785049   -0.2546166894    0.2950287833   -0.2790679748
 13         -0.4818810009   -0.2546168128    0.2950285855   -0.2790682928
 14         -0.4818820255   -0.2546168689    0.2950284970   -0.2790684221
 15         -0.4818824471   -0.2546168940    0.2950284580   -0.2790684748
 16         -0.4818826210   -0.2546169051    0.2950284408   -0.2790684964
 17         -0.4818826928   -0.2546169100    0.2950284333   -0.2790685053
Atom SCF converged after  17 iterations to a total energy of     -0.48188269

Atom SCF Calculation for Li : Z (AE atom) =   3 : Z (PS atom) =   3
Config String: 1s2 2s1 2p0
Orbitals (num,occ):  3     2.00 1.00 0.00
Orbitals   (num,l):  3        0    0    1
Real-space Grid (nr,dr,rmax): 1377    0.0065406977    9.0000000000
Spherical Bessel Basis (nsws,lmax,cutoff):   37    2  183.0099912382
Confining potential (l,width,scale):  0    3.0000000000  100.0000000000
Confining potential (l,width,scale):  1    3.0000000000  100.0000000000
  1         -6.1314629607   -4.7499359229    2.5388576516   -1.0480231927
  2         -7.0450508208   -4.1702030791    2.9795337774   -1.2623862962
  3         -7.3518474013   -3.9564527259    3.2037296734   -1.3880788964
  4         -7.4613386962   -3.8947565558    3.2914990517   -1.4402825036
  5         -7.5001516047   -3.8789668192    3.3221434609   -1.4602864917
  6         -7.5136113510   -3.8755528126    3.3322769691   -1.4678164580
  7         -7.5181182589   -3.8751724459    3.3354399675   -1.4706394447
  8         -7.5195538340   -3.8753832694    3.3363346353   -1.4716958846
  9         -7.5199777516   -3.8756112412    3.3365363545   -1.4720903919
 10         -7.5200869011   -3.8757624244    3.3365501247   -1.4722372325
 11         -7.5201065703   -3.8758489541    3.3365264569   -1.4722916218
 12         -7.5201049812   -3.8758952022    3.3365040630   -1.4723116262
 13         -7.5201006323   -3.8759190019    3.3364892955   -1.4723189110
 14         -7.5200980758   -3.8759285770    3.3364824548   -1.4723210036
 15         -7.5200963811   -3.8759342877    3.3364781194   -1.4723220111
 16         -7.5200953120   -3.8759376792    3.3364754203   -1.4723224913
 17         -7.5200946593   -3.8759396866    3.3364737619   -1.4723227171
 18         -7.5200942701   -3.8759408718    3.3364727530   -1.4723228213
 19         -7.5200940419   -3.8759415700    3.3364721439   -1.4723228682
 20         -7.5200939099   -3.8759419808    3.3364717784   -1.4723228886
 21         -7.5200938343   -3.8759422222    3.3364715600   -1.4723228969
Atom SCF converged after  21 iterations to a total energy of     -7.52009383

Determining parallel strategy ...
... using space-filling curve
... NGWF load balancing: max     16;  min     12;  average     14
... Projector load balancing: max     32;  min     24;  average     28
... done
Calculating Ewald energy ...
              Ewald: real-space energy =   37632.785687
        Ewald: reciprocal-space energy =   37070.834934
         Ewald: (sum_charge)**2 Energy =    2900.619784
         Ewald: (sum_charge**2) Energy =     255.297050
                          Ewald Energy =   71547.703787
Basis initialisation ...... NGWF spheres initialised
... Projector spheres initialised
... NGWF tight boxes initialised
... Projector tight boxes initialised
... Tight-boxes gathered
... NGWF basis size (local,global):     283326  45490194
... PAW projector initialisation
... done

============================= Charge Augmentation ==============================
                           Aug box size:   13 x  13 x  13
================================================================================

========================== Sparse matrix information ===========================
                        Overlap matrix filling:  37.38%
                        Density kernel filling: 100.00%
              NGWF-Proj overlap matrix filling:  10.44%
                    Aug Overlap matrix filling:  41.74%
                    Hamiltonian matrix filling:  41.74%
                  NGWF diagonal matrix filling:   0.18%
                             KS matrix filling: 100.00% 
                           KSKS matrix filling: 100.00% 
================================================================================

Sparse matrix initialisation ... done
NGWF initialisation ...... done
============ Calculation of NGWF S^-1 using Hotelling algorithm ================ 
         Iteration  |  Frobenius norm and Maximum abs value    (of I-S*S_n^-1)   
               1       0.47227090E+02     0.99732413E+00
               2       0.46989111E+02     0.99466144E+00
               3       0.46543820E+02     0.98937453E+00
               4       0.45757769E+02     0.97894784E+00
               5       0.44495780E+02     0.95863638E+00
               6       0.42707682E+02     0.92009964E+00
               7       0.40438710E+02     0.84942543E+00
               8       0.37716825E+02     0.80138632E+00
               9       0.34642262E+02     0.78602321E+00
              10       0.31532757E+02     0.76533939E+00
              11       0.28455167E+02     0.74687468E+00
              12       0.24855644E+02     0.72589849E+00
              13       0.20157341E+02     0.68782880E+00
              14       0.14319528E+02     0.62033180E+00
              15       0.84202973E+01     0.50984735E+00
              16       0.43440541E+01     0.43490369E+00
              17       0.24259121E+01     0.35245446E+00
              18       0.13841056E+01     0.27052431E+00
              19       0.69891030E+00     0.17648407E+00
              20       0.25364110E+00     0.79926543E-01
              21       0.45927486E-01     0.16706415E-01
              22       0.19205829E-02     0.73067578E-03
              23       0.36591815E-05     0.13976864E-05
              24       0.13389465E-10     0.51194604E-11
              25       0.57600519E-13     0.71054274E-14
================================================================================
Calculating core density ...
================================= Core Density =================================
               Core den box size:   21 x  21 x  21
================================================================================
 ... done
Up spin density kernel initialisation ...... done
Down spin density kernel initialisation ...... done

Writing density kernel to file "42/592nano.dkn" ... done

>>> Optimising kernel for current NGWFs:

--------------------------- Ensemble-DFT optimisation --------------------------
Running ScaLAPACK on  160 processor(s).

--------------------------------------------------------------------------------
  Iter                              Commutator    Free_energy(A=E-TS)     DeltaA
#    0                          0.001364933552   -3141.33757391503013  -3.14E+03

Step                       =       0.381966011250
Energy (E)                 =   -3141.307742396966
Entropy (-TS)              =      -0.029831518064
Free energy (A=E-TS)       =   -3141.337573915030
Est. 0K Energy 0.5*(E+A)   =   -3141.322658155998
Residual Non-orthogonality =       0.000000000000
Residual N_electrons       =      -0.000000000000

Spin          Integrated_Ne            Fermi_level     Delta_Fermi_level
   1      1085.000000000000        -0.225630731339             -2.26E-01
   2      1085.000000000000        -0.225630731338             -2.26E-01

                           Spin 1           |                 Spin 2           |
     Orb |    H-eigenvalues     Occupancies |    H-eigenvalues     Occupancies |
       1 |    -1.9119764141    1.0000000000 |    -1.9119764141    1.0000000000 | 
                          ------                             ------
    1080 |    -0.2417186065    0.9938194569 |    -0.2417186065    0.9938194569 | 
    1081 |    -0.2390282848    0.9856650074 |    -0.2390282848    0.9856650074 | 
    1082 |    -0.2358353282    0.9616669957 |    -0.2358353282    0.9616669957 | 
    1083 |    -0.2327046486    0.9032410375 |    -0.2327046486    0.9032410375 | 
    1084 |    -0.2291985718    0.7552173575 |    -0.2291985718    0.7552173575 | 
                  Finite temp. Fermi level   |      Finite temp. Fermi level  
    1085 |    -0.2248703068    0.4402560151 |    -0.2248703068    0.4402560151 | 
                 - Gap at zero temperature - |     - Gap at zero temperature -
    1086 |    -0.2228881788    0.2960811241 |    -0.2228881788    0.2960811241 | 
    1087 |    -0.2212511881    0.2005355642 |    -0.2212511881    0.2005355642 | 
    1088 |    -0.2206775834    0.1730619053 |    -0.2206775834    0.1730619053 | 
    1089 |    -0.2175901307    0.0731675367 |    -0.2175901307    0.0731675367 | 
                          ------                             ------
    2254 |     0.5551606082    0.0000000000 |     0.5551606082    0.0000000000 | 

                            |  Abs_value |  Threshold | Converged
     Delta_Free_energy/atom |   4.95E+00 |   1.00E-06 |        No
     Delta_Energy/atom      |   4.95E+00 |   1.00E-04 |        No
     Delta_Entropy/atom     |   4.71E-05 |   1.00E-04 |       Yes
     Commutator             |   1.36E-03 |   1.00E-05 |        No
     Delta_Fermi_level      |   2.26E-01 |   1.00E-03 |        No

  Line search of the free energy minimum:
  Step_type        Step             Free_energy   Predicted_free_energy
.   Initial    0.000000    -3141.33757391503013

Performing  Pulay mixing of Hamiltonian with coefficients:
                        Spin 1               Spin 2
                1.000000000000       1.000000000000
Lambda-->      43.772156194999      43.772156195002     ... done

.    Trial1    0.381966    -3141.56490433184035

Performing  Pulay mixing of Hamiltonian with coefficients:
                        Spin 1               Spin 2
                1.000000000000       1.000000000000
Lambda-->      43.772156194999      43.772156195002     ... done

.    Trial2    0.618034    -3137.09787528415836

Performing  Pulay mixing of Hamiltonian with coefficients:
                        Spin 1               Spin 2
                1.000000000000       1.000000000000
Lambda-->      43.772156194999      43.772156195002     ... done

. Quadratic    0.200406    -3142.46928746034246    -3142.60592492588421

--------------------------------------------------------------------------------
  Iter                              Commutator    Free_energy(A=E-TS)     DeltaA
[...]
 C     5 -- Li  634       -0.06     -0.00      5.64173
 C   290 -- Li  613       -0.05     -0.00      5.64507
 C   223 -- Li  595       -0.07      0.00      5.64807
 Li  595 -- Li  607       -0.17      0.00      5.64997
 C    85 -- Li  624       -0.05      0.00      5.65041
 C   514 -- Li  616       -0.04      0.00      5.65079
 H   276 -- Li  593       -0.01      0.00      5.65216
 C   120 -- Li  632       -0.06     -0.00      5.65655
 C   563 -- Li  619       -0.05      0.00      5.66096
 C   155 -- Li  603       -0.06      0.00      5.66344
 H   312 -- Li  604       -0.02     -0.00      5.66827
=============================================================


============== Orbital energy and occupancy information for spin 1 =============

      Total number of orbitals:    2254
        Occupancy sum (kernel):    1084.999999981
   Occupancy sum (eigenvalues):    1084.999999981
                 HOMO-LUMO gap:       0.001199278 Eh
                 Mid-gap level:      -0.077628779 Eh

                        Orbital | Energy (Eh) | Occupancy
                            1    -1.859324055   1.0000000
                        .......   ...........   .........
                         1076    -0.097528900   0.9975020
                         1077    -0.096657385   0.9967803
                         1078    -0.092901229   0.9894354
                         1079    -0.090696154   0.9787747
                         1080    -0.089186911   0.9666712
                         1081    -0.088554625   0.9597176
                         1082    -0.085386302   0.8971109
                         1083    -0.082812885   0.7942996
                         1084    -0.080968249   0.6829183
                         1085    -0.078228418   0.4793248
                        ....... -- gap at 0K -- .........
                         1086    -0.077029140   0.3834130
                         1087    -0.075384687   0.2687743
                         1088    -0.073348282   0.1630341
                         1089    -0.071347058   0.0931699
                         1090    -0.070658968   0.0769420
                         1091    -0.069752993   0.0584039
                         1092    -0.069325420   0.0518686
                         1093    -0.068382639   0.0390300
                         1094    -0.067499979   0.0294888
                         1095    -0.065949531   0.0184389
                        .......   ...........   .........
                         2254     0.768272839   0.0000000

================================================================================

============== Orbital energy and occupancy information for spin 2 =============

      Total number of orbitals:    2254
        Occupancy sum (kernel):    1085.000000017
   Occupancy sum (eigenvalues):    1085.000000017
                 HOMO-LUMO gap:       0.001199278 Eh
                 Mid-gap level:      -0.077628779 Eh

                        Orbital | Energy (Eh) | Occupancy
                            1    -1.859324055   1.0000000
                        .......   ...........   .........
                         1076    -0.097528900   0.9975020
                         1077    -0.096657385   0.9967803
                         1078    -0.092901230   0.9894354
                         1079    -0.090696154   0.9787747
                         1080    -0.089186912   0.9666711
                         1081    -0.088554625   0.9597176
                         1082    -0.085386303   0.8971109
                         1083    -0.082812885   0.7942996
                         1084    -0.080968248   0.6829183
                         1085    -0.078228418   0.4793248
                        ....... -- gap at 0K -- .........
                         1086    -0.077029140   0.3834130
                         1087    -0.075384687   0.2687743
                         1088    -0.073348282   0.1630341
                         1089    -0.071347058   0.0931699
                         1090    -0.070658968   0.0769420
                         1091    -0.069752994   0.0584039
                         1092    -0.069325420   0.0518686
                         1093    -0.068382639   0.0390300
                         1094    -0.067499979   0.0294888
                         1095    -0.065949530   0.0184389
                        .......   ...........   .........
                         2254     0.768272839   0.0000000

================================================================================

===================== Writing canonical molecular orbitals =====================
    Spin 1
| Orbital  Energy (eV)  Norm     |
| HOMO     -2.12870357  1.000000 | Writing "42/592nano_HOMO_UP.cube" ... done
Writing "42/592nano_HOMO_UP.dx" ... done
| LUMO     -2.09606955  1.000000 | Writing "42/592nano_LUMO_UP.cube" ... done
Writing "42/592nano_LUMO_UP.dx" ... done
================================================================================

===================== Writing canonical molecular orbitals =====================
    Spin 2
| Orbital  Energy (eV)  Norm     |
| HOMO     -2.12870356  1.000000 | Writing "42/592nano_HOMO_DN.cube" ... done
Writing "42/592nano_HOMO_DN.dx" ... done
| LUMO     -2.09606954  1.000000 | Writing "42/592nano_LUMO_DN.cube" ... done
Writing "42/592nano_LUMO_DN.dx" ... done
================================================================================

================== Local Density of States (LDOS) calculation ==================
Writing "42/592nano_UP_LDOS.txt" ...  done
================================================================================

================== Local Density of States (LDOS) calculation ==================
Writing "42/592nano_DN_LDOS.txt" ...  done
================================================================================
 
=============== Density of States (DOS) calculation for UP spin ================
Writing "42/592nano_UP_DOS.txt" ...  done
================================================================================
 
============== Density of States (DOS) calculation for DOWN spin ===============
Writing "42/592nano_DN_DOS.txt" ...  done
================================================================================
 
Writing bands to file "42/592nano.val_bands" ... done
 
================ Projected Density of States (pDOS) calculation ================
 
Constructing AM resolved functions  ...... done
Writing NGWF plot files in formats: CUBE DX ...  done
 
Performing overlap integrals ...  done
 
Computing pDOS weights ...  done
 
All bands spilling parameter =   4.07 %
Occupancy-weighted spilling parameter =   0.80 %
 
 => Outputting data for OptaDOS <=
 
Writing pDOS weights to file "42/592nano.val_pdos_bin" ... done
 
Writing band gradients to file "42/592nano.val_dome_bin" ... done
 
Writing Castep output cell file to "42/592nano-out.cell" ... done
 
 => Computing Gaussian smeared pDOS for UP spin<= 
Writing "42/592nano_UP_PDOS.txt" ...  done
 
 => Computing Gaussian smeared pDOS for DOWN spin<= 
Writing "42/592nano_DN_PDOS.txt" ...  done
 
 => Computing Occupancy-weighted Gaussian smeared pDOS for UP spin<= 
Writing "42/592nano_occ_UP_PDOS.txt" ...  done
  => Band centres for UP spin channel: 
 S band centre of group 1:  -18.716617 eV
 P band centre of group 1:   -8.170507 eV
  Band centres for UP spin channel done. <= 
  => Integrated number of electrons in each AM band for UP spin channel: 
 S num electrons of group 1:  308.403699
 P num electrons of group 1:  767.881133
  Integrated number of electrons for UP spin channel done. <= 
 
 => Computing Occupancy-weighted Gaussian smeared pDOS for DOWN spin<= 
Writing "42/592nano_occ_DN_PDOS.txt" ...  done
  => Band centres for DOWN spin channel: 
 S band centre of group 1:  -18.716617 eV
 P band centre of group 1:   -8.170507 eV
  Band centres for DOWN spin channel done. <=
  => Integrated number of electrons in each AM band for DOWN spin channel: 
 S num electrons of group 1:  308.403699
 P num electrons of group 1:  767.881133
  Integrated number of electrons for DOWN spin channel done. <=
================================================================================

------------------------------ TIMING INFORMATION ------------------------------
AVERAGE TIME:    9245.679s on    160 proc(s)                                    
TOTAL TIME:      9245.730s on    160 proc(s)                                    
================= AVERAGE TIMINGS FROM ALL PROCS (CUMULATIVE) ==================
|| TAG                                    #calls    cpu time   %total  Gflops ||
|| work_imbalance                       :     1        0.00s   0.000%  ------ ||
|| paw_tcore_density                    :     1        0.01s   0.000%  ------ ||
|| sparse_set_to_garbage                :   309        0.01s   0.000%  ------ ||
|| paw_dij_hartree                      :   277        0.01s   0.000%  ------ ||
|| paw_sphere_density_on_grid           :     1        0.01s   0.000%  ------ ||
|| basis_extract_function_from_box      :   478        0.03s   0.000%  ------ ||
|| ngwfs_initialise_from_radial         :     2        0.03s   0.000%  ------ ||
|| ewald_calculate_energy               :     1        0.08s   0.001%  ------ ||
|| pseudo_make_structure_factor         :     1        0.24s   0.003%  ------ ||
|| paw_tcore_hartree_on_grid            :     1        0.34s   0.004%  ------ ||
|| paw_dataset_init                     :     3        0.43s   0.005%  ------ ||
|| density_init_guess_real              :     1        0.80s   0.009%  ------ ||
|| dense_normal_eigensolve              :     1        0.87s   0.009%  ------ ||
|| sparse_init                          :     1        1.05s   0.011%  ------ ||
|| paw_species_calc_proj_prec_mat       :     1        1.53s   0.017%  ------ ||
|| restart_kernel_write                 :    18        1.74s   0.019%  ------ ||
|| augmentation_screen_dij              :   195        3.05s   0.033%  ------ ||
|| sw_init                              :     1        5.01s   0.054%  ------ ||
|| sparse_embed_hotelling_invert_embed  :    35        7.84s   0.085%  ------ ||
|| basis_copy_function_to_box           :  8353        8.61s   0.093%  ------ ||
|| paw_dij_xc                           :   277        8.86s   0.096%  ------ ||
|| ngwf_gradient_coeffs                 :    17       10.16s   0.110%  ------ ||
|| hartree_on_grid                      :   188       12.09s   0.131%  ------ ||
|| fourier_apply_box_pair               :  1213       17.54s   0.190%  1.827k ||
|| projectors_init_fftbox_recip         :    71       17.83s   0.193%  ------ ||
|| aug_nonlocal_mat                     :   260       18.30s   0.198%  ------ ||
|| sparse_trace                         :  7592       25.36s   0.274%  ------ ||
|| augmentation_density_on_grid         :   188       25.44s   0.275%  ------ ||
|| basis_dot_function_with_box          : 2.367M      45.32s   0.490%  ------ ||
|| projectors_func_ovlp_box             :    36       61.08s   0.661%  ------ ||
|| eigenstates_pdos                     :     1       69.65s   0.753%  ------ ||
|| integrals_kinetic                    :    35       74.03s   0.801%  ------ ||
|| function_ops_brappd_ketppd           :    72      130.70s   1.414%  ------ ||
|| eigenstates_calculate                :     1      134.68s   1.457%  ------ ||
|| hamiltonian_energy_components        :     4      136.40s   1.475%  ------ ||
|| dense_eigensolve                     :   294      142.16s   1.538%  ------ ||
|| basis_add_function_to_box            : 6.077M     170.66s   1.846%  ------ ||
|| fourier_apply_cell_forward           :  6920      171.71s   1.857% 140.273 ||
|| sparse_product                       : 10546      205.68s   2.225%  ------ ||
|| cell_grid_deposit_box_real           : 13625      246.64s   2.668%  ------ ||
|| fourier_apply_cell_backward          :  7669      256.22s   2.771% 104.179 ||
|| restart_ngwfs_tightbox_output        :    16      266.23s   2.880%  ------ ||
|| integrals_locpot_mat_els_batch       :   162      332.86s   3.600%  ------ ||
|| cell_grid_extract_box_real           :  5106      388.46s   4.202%  ------ ||
|| density_batch_row_sums               :   188      398.35s   4.309%  ------ ||
|| edft_diag_ngwf_ham                   :   292      445.58s   4.819%  ------ ||
|| xc_energy_potential                  :   187      484.08s   5.236%  ------ ||
|| density_fftbox_deposit_to_cell       :  6016      500.93s   5.418%  ------ ||
|| projectors_gradient_batch            :    17      542.28s   5.865%  ------ ||
|| density_fftbox_interpolate_multiply  :  6016      552.50s   5.976%  ------ ||
|| fourier_apply_box                    : 28425      590.78s   6.390%  4.082k ||
|| nlxc_vdw_energy                      :   374      648.81s   7.017%  ------ ||
|| edft_apply_smearing_operator         :   146      692.58s   7.491%  ------ ||
|| potential_apply_to_ngwf_batch        :   162      768.38s   8.311%  ------ ||
|| properties_calculate                 :     1      915.26s   9.899%  ------ ||
|| integrals_locpot_dbl_grid            :   162     1106.50s  11.968%  ------ ||
|| density_batch_interp_deposit         :   188     1363.91s  14.752%  ------ ||
|| projectors_grad_precond_batch        :    17     1398.09s  15.122%  ------ ||
|| density_on_dbl_grid                  :   188     1777.85s  19.229%  ------ ||
|| ngwf_gradient_build_batch            :    17     2137.96s  23.124%  ------ ||
|| ngwf_gradient_batch                  :    17     2325.21s  25.149%  ------ ||
|| ngwf_gradient_lnv                    :    17     2342.79s  25.339%  ------ ||
|| hamiltonian_lhxc_calculate           :   182     2358.09s  25.505%  ------ ||
|| edft_calculate                       :    17     4031.16s  43.600%  ------ ||
|| ngwf_cg_optimise                     :     1     8300.94s  89.782%  ------ ||
|| total_time                           :     1     9245.68s 100.000%  ------ ||
================================================================================
==================== AVERAGE TIMINGS FROM ALL PROCS (SELF) =====================
++ TAG                                    #calls    cpu time   %total  Gflops ++
++ nlxc_vdw_energy                      :   374       -5.21s  -0.056%  ------ ++
++ work_imbalance                       :     1        0.00s   0.000%  ------ ++
++ paw_tcore_density                    :     1        0.00s   0.000%  ------ ++
++ paw_sphere_density_on_grid           :     1        0.01s   0.000%  ------ ++
++ paw_tcore_hartree_on_grid            :     1        0.01s   0.000%  ------ ++
++ sparse_set_to_garbage                :   309        0.01s   0.000%  ------ ++
++ paw_dij_hartree                      :   277        0.01s   0.000%  ------ ++
++ basis_extract_function_from_box      :   478        0.03s   0.000%  ------ ++
++ ngwfs_initialise_from_radial         :     2        0.03s   0.000%  ------ ++
++ sparse_embed_hotelling_invert_embed  :    35        0.04s   0.000%  ------ ++
++ ngwf_gradient_coeffs                 :    17        0.07s   0.001%  ------ ++
++ ewald_calculate_energy               :     1        0.08s   0.001%  ------ ++
++ pseudo_make_structure_factor         :     1        0.24s   0.003%  ------ ++
++ density_init_guess_real              :     1        0.41s   0.004%  ------ ++
++ paw_dataset_init                     :     3        0.43s   0.005%  ------ ++
++ hartree_on_grid                      :   188        0.67s   0.007%  ------ ++
++ dense_normal_eigensolve              :     1        0.87s   0.009%  ------ ++
++ sparse_init                          :     1        1.05s   0.011%  ------ ++
++ paw_species_calc_proj_prec_mat       :     1        1.29s   0.014%  ------ ++
++ aug_nonlocal_mat                     :   260        1.37s   0.015%  ------ ++
++ restart_kernel_write                 :    18        1.74s   0.019%  ------ ++
++ main_program_(onetep.F90)            :     1        2.35s   0.025%  ------ ++
++ augmentation_screen_dij              :   195        2.45s   0.026%  ------ ++
++ hamiltonian_energy_components        :     4        3.35s   0.036%  ------ ++
++ sw_init                              :     1        5.01s   0.054%  ------ ++
++ integrals_locpot_dbl_grid            :   162        5.26s   0.057%  ------ ++
++ augmentation_density_on_grid         :   188        6.98s   0.076%  ------ ++
++ ngwf_gradient_lnv                    :    17        7.42s   0.080%  ------ ++
++ basis_copy_function_to_box           :  8353        8.61s   0.093%  ------ ++
++ paw_dij_xc                           :   277        8.86s   0.096%  ------ ++
++ density_on_dbl_grid                  :   188       15.59s   0.169%  ------ ++
++ fourier_apply_box_pair               :  1213       17.54s   0.190%  1.827k ++
++ projectors_init_fftbox_recip         :    71       17.83s   0.193%  ------ ++
++ sparse_trace                         :  7592       25.36s   0.274%  ------ ++
++ projectors_func_ovlp_box             :    36       35.85s   0.388%  ------ ++
++ basis_dot_function_with_box          : 2.367M      45.32s   0.490%  ------ ++ (!) overhead: ~   5.6%
++ eigenstates_calculate                :     1       48.18s   0.521%  ------ ++
++ edft_calculate                       :    17       52.01s   0.563%  ------ ++
++ eigenstates_pdos                     :     1       56.88s   0.615%  ------ ++
++ integrals_kinetic                    :    35       62.72s   0.678%  ------ ++
++ xc_energy_potential                  :   187       73.12s   0.791%  ------ ++
++ ngwf_gradient_build_batch            :    17       82.90s   0.897%  ------ ++
++ ngwf_gradient_batch                  :    17      117.12s   1.267%  ------ ++
++ hamiltonian_lhxc_calculate           :   182      126.79s   1.371%  ------ ++
++ function_ops_brappd_ketppd           :    72      130.70s   1.414%  ------ ++
++ dense_eigensolve                     :   294      142.16s   1.538%  ------ ++
++ basis_add_function_to_box            : 6.077M     170.66s   1.846%  ------ ++ (!) overhead: ~   3.8%
++ fourier_apply_cell_forward           :  6920      171.71s   1.857% 140.273 ++
++ sparse_product                       : 10546      205.68s   2.225%  ------ ++
++ density_fftbox_interpolate_multiply  :  6016      212.75s   2.301%  ------ ++
++ edft_apply_smearing_operator         :   146      232.04s   2.510%  ------ ++
++ density_batch_interp_deposit         :   188      236.58s   2.559%  ------ ++
++ cell_grid_deposit_box_real           : 13625      246.64s   2.668%  ------ ++
++ density_fftbox_deposit_to_cell       :  6016      255.72s   2.766%  ------ ++
++ fourier_apply_cell_backward          :  7669      256.22s   2.771% 104.179 ++
++ restart_ngwfs_tightbox_output        :    16      266.22s   2.879%  ------ ++
++ integrals_locpot_mat_els_batch       :   162      297.40s   3.217%  ------ ++
++ density_batch_row_sums               :   188      299.30s   3.237%  ------ ++
++ edft_diag_ngwf_ham                   :   292      304.46s   3.293%  ------ ++
++ cell_grid_extract_box_real           :  5106      388.46s   4.202%  ------ ++
++ potential_apply_to_ngwf_batch        :   162      463.66s   5.015%  ------ ++
++ properties_calculate                 :     1      526.45s   5.694%  ------ ++
++ projectors_gradient_batch            :    17      528.93s   5.721%  ------ ++
++ fourier_apply_box                    : 28425      590.78s   6.390%  4.082k ++
++ ngwf_cg_optimise                     :     1     1017.51s  11.005%  ------ ++
++ projectors_grad_precond_batch        :    17     1380.08s  14.927%  ------ ++
================================================================================
(!) WARNING: You're wasting precious cycles calling timer. 
             Each pair of timer_clock calls itself cost   1.08 microseconds!
Overhead of generating timer report: 
- 0 ms averaging over threads,
- 20 ms ensuring consistency across MPI ranks,
- 0 ms printing in order.

Job completed: 13-12-2021 14:13 (-0000)

