 +---------------------------------------------------------------+
 |                                                               |
 |        ####### #     # ####### ####### ####### ######         |
 |        #     # ##    # #          #    #       #     #        |
 |        #     # # #   # #          #    #       #     #        |
 |        #     # #  #  # #####      #    #####   ######         |
 |        #     # #   # # #          #    #       #              |
 |        #     # #    ## #          #    #       #              |
 |        ####### #     # #######    #    ####### #              |
 |                                                               |
 |        Linear-Scaling Ab Initio Total Energy Program          |
 |                                                               |
 |          Release for academic collaborators of ODG            |
 |                                             Version 5.3.2.12  |
 |                                                               |
 +---------------------------------------------------------------+
 |                                                               |
 |  Authors:                                                     |
 |  Jacek Dziedzic, Peter D. Haynes, Nicholas D. M. Hine,        |
 |  Arash. A. Mostofi, Mike C. Payne and Chris-Kriton Skylaris   |
 |                                                               |
 |  Contributors:                                                |
 |  J. Aarons, L. Andrinopoulos, P. W. Avraam, R. A. Bell,       |
 |  A. Bhandari, G. A. Bramley, R. J. Charlton, S. J. Clark,     |
 |  R. J. Clements, G. C. Constantinescu, F. Corsetti,           |
 |  N. Corsini, O. Dieguez, S. M. M. Dubois, K. K. B. Duff,      |
 |  J. M. Escartin, A. Greco, H. Helal, Q. O. Hill, L. P. Lee,   |
 |  J.-H. Li, E. B. Linscott, G. Moynihan, D. D. O`Regan,        |
 |  O. K. Okan, M. J. S. Phipps, C. J. Pickard,                  |
 |  J. C. A. Prentice, M. I. J. Probert, L. E. Ratcliff,         |
 |  M. Robinson, A. Ruiz Serrano, J. S. Spencer, E. W. Tait,     |
 |  G. Teobaldi, D. Turban, V. Vitale, K. A. Wilkinson,          |
 |  C. Weber, J. C. Womack, N. Yeung and T. J. Zuehlsdorff       |
 |                                                               |
 |                                   Copyright (c) 2004-2020     |
 |                                                               |
 |  Please cite:                                                 |
 |  "Introducing ONETEP: Linear-scaling density functional       |
 |   simulations on parallel computers".                         |
 |   C.-K. Skylaris, P. D. Haynes, A. A. Mostofi, M. C. Payne.   |
 |   J. Chem. Phys. 122 084119 (2005).                           |
 |                                                               |
 |          in all publications arising from your use of ONETEP. |
 |                                                               |
 +---------------------------------------------------------------+
 |                                                               |
 |   ONETEP is based on developments described in the following  |
 |   publications:                                               |
 |                                                               |
 |  "Nonorthogonal generalized Wannier function pseudopotential  |
 |   plane-wave method".                                         |
 |   C.-K. Skylaris, A. A. Mostofi, P. D. Haynes, O. Dieguez,    |
 |   M. C. Payne.                                                |
 |   Phys. Rev. B 66 035119 (2002).                              |
 |                                                               |
 |  "Preconditioned iterative minimization for linear-scaling    |
 |   electronic structure calculations".                         |
 |   A. A. Mostofi, P. D. Haynes, C.-K. Skylaris, M. C. Payne.   |
 |   J. Chem. Phys. 119(17), pp.8842-8848 (2003).                |
 |                                                               |
 |  "Total-energy calculations on a real space grid with         |
 |   localized functions and a plane-wave basis".                |
 |   A. A. Mostofi, C.-K. Skylaris, P. D. Haynes, M. C. Payne.   |
 |   Comput. Phys. Commun. 147, pp.788-802 (2002).               |
 |                                                               |
 |  "Accurate kinetic energy evaluation in electronic structure  |
 |   calculations with localized functions on real space grids"  |
 |   C.-K. Skylaris, A. A. Mostofi, P. D. Haynes, C. J. Pickard, |
 |   M. C. Payne.                                                |
 |   Comput. Phys. Commun. 140, pp.315-322 (2001).               |
 |                                                               |
 |  "Accurate ionic forces and geometry optimization in linear-  |
 |   scaling density-functional theory with local orbitals"      |
 |   N. D. M. Hine, M. Robinson, P. D. Haynes, C.-K. Skylaris,   |
 |   M. C. Payne, and A. A. Mostofi.                             |
 |   Phys. Rev. B 83 195102 (2011).                              |
 |                                                               |
 +---------------------------------------------------------------+

Job started: 17-06-2020 22:49 (+0100)
 
Reading parameters from file "592nano.dat" ...... done

If your calculation crashes here, before "Checking processes and threads..."
is displayed, then your stack size is insufficient.
If so, use "ulimit -s unlimited" at runtime.
You can disable this check with "check_stack_size F".

Checking processes and threads...
   Determining the default number of threads...
      No default threads set at compilation time: defaulting to 1.
      OpenMP library call suggests 4 threads.
      Hybrid MPI-OpenMP compilation detected.
      Number of MPI processes > 1.
      OMP_NUM_THREADS environment variable present and
      its value matches the one obtained from the OpenMP library call.
      Using this value as default.
      Default threads: 4
      Default applies to threads_max and threads_num_fftboxes.
      Settings in the input file override this default.
   ... done

   Running with 150 MPI processes.
   There are 10 MPI processes running on the same node as the root process.
   Each MPI process is using: 
               1 threads for simulation cell FFTs.
               1 threads for parallel FFT box operations.
               4 threads for loops over batched FFT box operations.
               4 threads in other parallel regions.
... done

Basic input checks...
Resetting ngwf_cg_rotate to TRUE for EDFT calculations
... done

Reading geometry and species blocks from file "592nano.dat" ...    
  Number of PPD points along a3 set to 1.  This is 
  the default value, it may have been provided also in the input file.
... done


--------------------------------------------------------------------------------
---------------------------------- INPUT FILE ----------------------------------
--------------------------------------------------------------------------------

task : geometryoptimization                                                     
do_properties : true                                                            
dx_format T                                                                     
edft T                                                                          
output_detail VERBOSE                                                           
write_xyz T                                                                     
dispersion 4                                                                    
xc_functional PBE                                                               
cutoff_energy 830 eV                                                            
paw T                                                                           
geom_continuation T                                                             
geom_disp_tol 0.015 bohr                                                        
geom_energy_tol 1.5E-6 hartree                                                  
geom_force_tol 0.003 "ha/bohr"                                                  
%BLOCK SPECIES_LDOS_GROUPS                                                      
C                                                                               
H                                                                               
Li                                                                              
%ENDBLOCK SPECIES_LDOS_GROUPS                                                   
EDFT_MAXIT 30                                                                   
pdos_max_l = 2                                                                  
dos_smear  0.1 eV                                                               
popn_calculate T                                                                
PDOS_PSEUDOATOMIC T                                                             
PDOS_REDUCE_SWS F                                                               
PDOS_CONSTRUCT_BASIS F                                                          
PDOS_LOWDIN T                                                                   
PDOS_ORTH_ATOM_BLOCKS F                                                         
PDOS_LCAO_OPTIMIZE F                                                            
pdos_optados_output T                                                           
homo_plot 0                                                                     
lumo_plot 0                                                                     
homo_dens_plot -1                                                               
lumo_dens_plot -1                                                               
%BLOCK SPECIES                                                                  
C C 6 4 9.0                                                                     
H H 1 1 9.0                                                                     
Li Li 3 5 9.0                                                                   
%ENDBLOCK SPECIES                                                               
%BLOCK SPECIES_POT                                                              
C "~/pp/paw/c_pbe_abinit.paw"                                                   
H "~/pp/paw/h_pbe_abinit.paw"                                                   
Li "~/pp/paw/li_pbe_abinit.paw"                                                 
%ENDBLOCK SPECIES_POT                                                           
%BLOCK SPECIES_ATOMIC_SET                                                       
C "SOLVE conf=2s2 2p2"                                                          
H "SOLVE conf=1s1"                                                              
Li "SOLVE conf=1s2 2s1 2p0"                                                     
%ENDBLOCK SPECIES_ATOMIC_SET                                                    
%BLOCK LATTICE_CART                                                             
94.486315650000      0.000000000000       0.000000000000                        
0.000000000000       94.486315650000      0.000000000000                        
0.000000000000       0.000000000000       94.486315650000                       
%ENDBLOCK LATTICE_CART                                                          
%BLOCK POSITIONS_ABS                                                            
C 45.469005 50.726809 30.691069                                                 
C 45.405534 50.562884 36.804929                                                 
C 46.819510 53.057931 30.727223                                                 
C 48.096134 50.564156 36.820784                                                 
C 49.513046 48.396972 30.714239                                                 
C 49.442440 48.237578 36.821883                                                 
C 50.860383 50.727527 30.738323                                                 
C 52.131896 48.241293 36.829736                                                 
C 45.476826 55.392024 30.718690                                                 
C 45.413584 55.223653 36.819187                                                 
C 46.833313 57.725703 30.734210                                                 
C 48.099593 55.222978 36.834517                                                 
C 49.515161 53.054925 30.746738                                                 
C 49.441266 52.892994 36.835391                                                 
C 50.868589 55.388735 30.756488                                                 
C 52.130295 52.894727 36.846276                                                 
C 45.380698 50.492723 42.964932                                                 
C 45.349631 50.404870 49.080116                                                 
C 46.732205 52.820665 42.955563                                                 
C 48.044704 50.401547 49.049847                                                 
C 49.413879 48.170295 42.954723                                                 
C 49.397312 48.068358 49.041309                                                 
C 50.763081 50.494736 42.947912                                                 
C 52.093807 48.068790 49.039901                                                 
C 45.396033 55.151049 42.968700                                                 
C 45.350491 55.070382 49.095991                                                 
C 46.748039 57.477309 42.971813                                                 
C 48.041351 55.064866 49.057565                                                 
C 49.422554 52.822191 42.946058                                                 
C 49.385999 52.732781 49.039216                                                 
C 50.774013 55.148568 42.948860                                                 
C 52.083258 52.731447 49.036517                                                 
C 57.612245 48.399980 30.700372                                                 
C 57.509537 48.246288 36.832525                                                 
C 58.959224 50.722978 30.707298                                                 
C 60.226958 48.254312 36.825722                                                 
C 57.501692 48.186878 42.959431                                                 
C 57.481795 48.077185 49.081805                                                 
C 58.847776 50.506213 42.960438                                                 
C 60.205981 48.087989 49.100121                                                 
C 53.560112 50.726607 30.742515                                                 
C 53.472524 50.569159 36.841661                                                 
C 54.908229 53.054344 30.759515                                                 
C 56.168734 50.572446 36.842603                                                 
C 53.457234 50.500611 42.952287                                                 
C 53.433122 50.405350 49.040767                                                 
C 54.807894 52.825982 42.949349                                                 
C 56.131700 50.407136 49.058358                                                 
C 57.624605 43.752630 30.705933                                                 
C 57.517780 43.588163 36.806634                                                 
C 58.961021 46.070075 30.671927                                                 
C 60.235416 43.612398 36.804569                                                 
C 57.506825 43.548445 42.868366                                                 
C 57.508252 43.425263 49.198768                                                 
C 58.846310 45.861894 42.949047                                                 
C 60.221763 43.454045 49.183910                                                 
C 53.564849 46.073298 30.730485                                                 
C 53.480279 45.912728 36.820146                                                 
C 54.911207 48.402590 30.725085                                                 
C 56.174244 45.919148 36.820810                                                 
C 53.451326 45.855992 42.914121                                                 
C 53.448189 45.744368 49.073444                                                 
C 54.800352 48.179620 42.949767                                                 
C 56.150558 45.752578 49.105865                                                 
C 57.611942 57.711824 30.840877                                                 
C 57.508461 57.561014 36.887578                                                 
C 58.958428 60.099267 30.853056                                                 
C 60.227518 57.543111 36.901870                                                 
C 57.512206 57.467255 42.960198                                                 
C 57.465168 57.402595 48.983864                                                 
C 58.859556 59.828665 42.970794                                                 
C 60.209479 57.371970 48.984810                                                 
C 45.511473 64.733125 30.749228                                                 
C 45.454269 64.547242 36.842346                                                 
C 46.914179 67.086161 30.816489                                                 
C 48.128352 64.544181 36.863786                                                 
C 49.543877 62.391052 30.749818                                                 
C 49.468419 62.214412 36.865999                                                 
C 50.924865 64.751007 30.753367                                                 
C 52.150519 62.211126 36.887543                                                 
C 45.422272 64.468927 42.996504                                                 
C 45.385418 64.405220 49.285988                                                 
C 46.802303 66.808604 43.026086                                                 
C 48.058706 64.403469 49.212508                                                 
C 49.449282 62.130682 42.997143                                                 
C 49.404392 62.070550 49.146615                                                 
C 50.817495 64.478571 43.017711                                                 
C 52.086656 62.071583 49.119571                                                 
C 53.577576 60.050488 30.761695                                                 
C 53.487687 59.884234 36.881891                                                 
C 54.938949 62.421184 30.755482                                                 
C 56.177231 59.877913 36.896944                                                 
C 53.477303 59.798690 42.973863                                                 
C 53.418909 59.739056 49.059365                                                 
C 54.837706 62.152103 42.990265                                                 
C 56.122086 59.733856 49.011065                                                 
C 57.607040 53.040258 30.759097                                                 
C 57.507165 52.901233 36.854940                                                 
C 58.957558 55.381736 30.819350                                                 
C 60.225533 52.898977 36.859017                                                 
C 57.505068 52.827351 42.952632                                                 
C 57.471117 52.736800 49.050023                                                 
C 58.849698 55.156539 42.955974                                                 
C 60.204018 52.727907 49.061696                                                 
C 45.498928 60.058355 30.708951                                                 
C 45.428928 59.882145 36.829086                                                 
C 46.864880 62.387956 30.735331                                                 
C 48.112863 59.880663 36.845628                                                 
C 49.528628 57.722516 30.753886                                                 
C 49.449059 57.551648 36.849259                                                 
C 50.884067 60.056652 30.748993                                                 
C 52.137658 57.551045 36.863273                                                 
C 45.411052 59.809413 42.980547                                                 
C 45.363240 59.735068 49.188483                                                 
C 46.764904 62.138843 42.994084                                                 
C 48.051981 59.732269 49.122287                                                 
C 49.435812 57.474084 42.963059                                                 
C 49.389488 57.400275 49.066115                                                 
C 50.789707 59.805690 42.977462                                                 
C 52.081205 57.398993 49.044485                                                 
C 53.559807 55.385592 30.771161                                                 
C 53.475367 55.225867 36.860298                                                 
C 54.904080 57.725776 30.782795                                                 
C 56.169014 55.226411 36.866786                                                 
C 53.466772 55.147323 42.947376                                                 
C 53.425657 55.063701 49.029387                                                 
C 54.818347 57.477018 42.958364                                                 
C 56.122225 55.053515 49.027528                                                 
H 27.253055 41.384104 29.957625                                                 
H 28.248827 39.476064 36.841428                                                 
H 27.195111 41.184539 42.913068                                                 
H 28.186675 39.340799 49.957083                                                 
H 41.838979 30.300317 29.867395                                                 
C 42.884553 32.085495 29.869991                                                 
H 44.508758 30.126607 37.077238                                                 
H 41.762843 30.030964 42.771798                                                 
C 42.782587 31.833713 42.806657                                                 
H 44.411341 29.981910 49.239706                                                 
H 29.587624 37.298052 29.860942                                                 
C 30.632704 39.080140 29.856109                                                 
H 32.277872 37.139736 36.999970                                                 
H 33.700818 34.899775 29.699686                                                 
C 34.726189 36.693304 29.705850                                                 
H 29.507623 37.116429 42.901105                                                 
C 30.539757 38.908320 42.891888                                                 
H 32.231406 37.006909 50.174810                                                 
H 33.534809 34.741025 42.764580                                                 
C 34.594606 36.517065 42.783607                                                 
H 37.803145 32.599172 29.569673                                                 
C 38.814623 34.403780 29.580287                                                 
H 40.434895 32.446881 37.130087                                                 
H 37.655367 32.368442 42.412959                                                 
C 38.678487 34.157348 42.580065                                                 
H 40.389763 32.315500 50.194973                                                 
H 46.488315 30.303223 30.359620                                                 
H 46.423908 30.098677 43.148038                                                 
H 25.847037 48.205711 37.074132                                                 
C 27.913042 48.221114 37.022469                                                 
H 25.785456 48.070791 50.081254                                                 
C 27.853912 48.085614 50.067719                                                 
H 25.883126 43.514003 36.949685                                                 
H 27.246036 46.103784 29.674250                                                 
C 27.951378 43.513489 36.925958                                                 
H 25.822597 43.379173 50.015381                                                 
H 27.192485 45.842380 42.696778                                                 
C 27.891541 43.377296 50.048542                                                 
H 25.896701 57.649173 37.088703                                                 
H 27.324327 60.130119 30.009351                                                 
C 27.964921 57.644771 37.065299                                                 
H 25.804521 57.474861 49.273928                                                 
H 27.243856 59.880694 43.052203                                                 
C 27.869643 57.466454 49.367685                                                 
H 25.857325 52.951814 37.159149                                                 
H 27.302468 55.465246 29.701510                                                 
C 27.922694 52.937255 37.098068                                                 
H 25.768069 52.772171 49.761106                                                 
H 27.225652 55.224886 43.101925                                                 
C 27.837037 52.766441 49.752054                                                 
C 29.319008 41.382995 29.918943                                                 
C 29.265315 41.276286 36.864697                                                 
C 30.597855 43.748796 29.897155                                                 
C 31.956885 41.208822 36.886082                                                 
C 33.329525 38.980924 29.795341                                                 
C 33.319811 38.925752 36.942867                                                 
C 34.688146 41.383016 29.899645                                                 
C 35.983678 38.861540 37.101596                                                 
C 29.313911 46.099473 29.750522                                                 
C 29.222774 45.887538 37.012682                                                 
C 30.617743 48.423463 29.668729                                                 
C 31.944533 45.875293 36.943141                                                 
C 33.340973 43.720677 29.958796                                                 
C 33.293176 43.556742 36.893870                                                 
C 34.691984 46.077342 30.037002                                                 
C 35.994911 43.558215 36.877494                                                 
C 29.261850 41.164345 42.906358                                                 
C 29.206258 41.139360 50.011518                                                 
C 30.551031 43.531312 42.867370                                                 
C 31.900678 41.078671 50.029318                                                 
C 33.232032 38.819852 42.804794                                                 
C 33.275798 38.793919 50.115481                                                 
C 34.581387 41.183058 42.849723                                                 
C 35.938515 38.743290 50.176103                                                 
C 29.258881 45.848892 42.776666                                                 
C 29.165831 45.756213 50.095178                                                 
C 30.542819 48.201468 42.707459                                                 
C 31.887176 45.744706 49.971289                                                 
C 33.254572 43.511379 42.891693                                                 
C 33.238387 43.426019 49.938981                                                 
C 34.607112 45.849054 42.921012                                                 
C 35.942547 43.422241 49.796617                                                 
C 41.461067 39.066411 29.876983                                                 
C 41.406031 38.893772 36.965001                                                 
C 42.795551 41.403417 30.178520                                                 
C 44.096102 38.901539 36.946542                                                 
C 41.342616 38.823338 42.895805                                                 
C 41.379206 38.758736 49.737903                                                 
C 42.682351 41.161764 42.992902                                                 
C 44.059749 38.749610 49.461230                                                 
C 37.411466 41.382595 29.953537                                                 
C 37.345552 41.235181 36.957667                                                 
C 38.738498 43.724397 30.182830                                                 
C 40.040565 41.230834 36.900127                                                 
C 37.298681 41.166989 42.889893                                                 
C 37.299217 41.105814 49.902222                                                 
C 38.647265 43.501336 42.989602                                                 
C 40.003371 41.078928 49.665428                                                 
C 41.471205 34.380712 29.661201                                                 
C 41.454790 34.242128 37.069397                                                 
C 42.841598 36.731676 29.722329                                                 
C 44.117925 34.211429 37.066207                                                 
C 41.355314 34.125878 42.657855                                                 
C 41.405947 34.110320 50.006093                                                 
C 42.710814 36.481460 42.847262                                                 
C 44.054301 34.056099 49.517288                                                 
C 37.412887 36.658535 29.617421                                                 
C 37.373568 36.573174 36.999687                                                 
C 38.774481 39.045493 29.785575                                                 
C 40.039952 36.523173 37.026396                                                 
C 37.272194 36.443123 42.712302                                                 
C 37.344020 36.448002 50.042133                                                 
C 38.644167 38.821522 42.835609                                                 
C 40.021765 36.396704 50.088846                                                 
C 41.423638 48.396054 30.529960                                                 
C 41.372852 48.233008 36.782704                                                 
C 42.770927 50.729648 30.629330                                                 
C 44.061263 48.232950 36.792343                                                 
C 41.343365 48.163379 43.005987                                                 
C 41.313520 48.077616 49.219144                                                 
C 42.690751 50.492678 42.988015                                                 
C 44.008030 48.070262 49.121752                                                 
C 29.370554 55.451396 29.790475                                                 
C 29.235019 55.264311 37.129813                                                 
C 30.674441 57.775678 29.905149                                                 
C 31.957114 55.270739 37.038554                                                 
C 33.375638 53.106826 29.967470                                                 
C 33.300284 52.912283 36.947226                                                 
C 34.717249 55.427713 30.113231                                                 
C 35.993613 52.901945 36.845752                                                 
C 29.294537 55.212937 43.100625                                                 
C 29.132618 55.077329 49.510645                                                 
C 30.590974 57.510404 43.076562                                                 
C 31.875871 55.103467 49.498621                                                 
C 33.284067 52.861286 43.020606                                                 
C 33.227787 52.756514 49.558826                                                 
C 34.632912 55.178125 43.038384                                                 
C 35.919513 52.754644 49.422602                                                 
C 37.385718 50.741314 30.345475                                                 
C 37.332231 50.566483 36.797579                                                 
C 38.735743 53.075950 30.458347                                                 
C 40.027270 50.564362 36.781024                                                 
C 37.312307 50.505863 43.012309                                                 
C 37.267123 50.419219 49.390735                                                 
C 38.663561 52.835155 43.020352                                                 
C 39.964316 50.412759 49.246101                                                 
C 41.435912 43.728108 30.303125                                                 
C 41.380418 43.563687 36.828485                                                 
C 42.774685 46.062750 30.494620                                                 
C 44.074538 43.567772 36.821833                                                 
C 41.335443 43.494624 43.014516                                                 
C 41.332106 43.410288 49.381516                                                 
C 42.682363 45.830641 43.017166                                                 
C 44.026534 43.405076 49.208809                                                 
C 29.343722 50.770989 29.788373                                                 
C 29.192997 50.575330 37.056237                                                 
C 30.649429 53.122325 29.696101                                                 
C 31.942513 50.573219 36.952670                                                 
C 33.358269 48.410155 29.931881                                                 
C 33.295735 48.231513 36.900019                                                 
C 34.696605 50.750352 30.095506                                                 
C 35.989815 48.233634 36.814270                                                 
C 29.266379 50.539899 42.898130                                                 
C 29.125494 50.445149 49.923845                                                 
C 30.561836 52.867399 43.023207                                                 
C 31.877655 50.436998 49.781676                                                 
C 33.277301 48.183304 42.870563                                                 
C 33.231807 48.101673 49.797758                                                 
C 34.620397 50.518154 42.976518                                                 
C 35.929203 48.089763 49.560959                                                 
C 37.386717 46.062760 30.227994                                                 
C 37.340295 45.896158 36.816674                                                 
C 38.730082 48.398312 30.389662                                                 
C 40.027268 45.895801 36.798700                                                 
C 37.303380 45.840863 42.989230                                                 
C 37.281479 45.756657 49.556765                                                 
C 38.648518 48.167964 43.007017                                                 
C 39.971168 45.744626 49.365547                                                 
C 45.463728 32.086655 30.148264                                                 
C 45.547691 31.912134 37.021298                                                 
C 46.883808 34.384809 30.234132                                                 
C 48.130216 31.933085 36.932879                                                 
H 49.183835 30.152503 36.910544                                                 
H 50.523125 32.610297 30.680693                                                 
C 45.519593 36.728894 30.062601                                                 
C 45.479345 36.563968 36.992237                                                 
C 46.846990 39.066610 30.323997                                                 
C 48.159554 36.578585 36.900576                                                 
C 49.512941 34.406886 30.521636                                                 
C 49.535625 34.243955 36.887612                                                 
C 50.900916 36.677695 30.637841                                                 
C 52.175171 34.290268 36.829418                                                 
C 45.368619 31.871372 43.001964                                                 
C 45.449547 31.768900 49.255727                                                 
C 46.772655 34.177853 42.985473                                                 
C 48.087531 31.753446 49.097780                                                 
H 49.099700 29.957097 48.950671                                                 
H 50.458914 32.448511 42.985503                                                 
C 45.394597 36.506977 42.952983                                                 
C 45.444455 36.407709 49.373890                                                 
C 46.736020 38.843376 42.976089                                                 
C 48.141501 36.403190 49.237442                                                 
C 49.416688 34.232782 42.965690                                                 
C 49.532462 34.037981 49.170694                                                 
C 50.787000 36.502826 42.855056                                                 
C 52.188030 34.082979 49.302448                                                 
H 53.214471 32.499402 36.834882                                                 
H 53.220872 32.289944 49.264282                                                 
C 57.634089 39.123748 30.762071                                                 
C 57.543873 38.909232 36.784412                                                 
C 58.970687 41.397359 30.707017                                                 
C 60.255964 38.991190 36.797040                                                 
C 57.506144 38.943277 42.655623                                                 
C 57.554287 38.760730 49.558622                                                 
C 58.858603 41.207226 42.834180                                                 
C 60.253633 38.837930 49.394027                                                 
C 45.469473 46.062755 30.587211                                                 
C 45.413126 45.901941 36.802895                                                 
C 46.817428 48.395812 30.677528                                                 
C 48.100794 45.905189 36.812057                                                 
C 49.520974 43.738888 30.656473                                                 
C 49.454626 43.577914 36.815714                                                 
C 50.867799 46.068412 30.711621                                                 
C 52.145419 43.584402 36.807961                                                 
C 45.372643 45.835304 43.000754                                                 
C 45.363601 45.739460 49.100740                                                 
C 46.719814 48.163573 42.968456                                                 
C 48.060300 45.736734 49.052964                                                 
C 49.411724 43.514601 42.938176                                                 
C 49.422621 43.405665 49.075168                                                 
C 50.758079 45.843314 42.936535                                                 
C 52.117143 43.407583 49.121764                                                 
C 53.591829 41.415544 30.763042                                                 
C 53.501479 41.254533 36.794871                                                 
C 54.928414 43.747857 30.733083                                                 
C 56.191420 41.268385 36.789316                                                 
C 53.456555 41.217050 42.763467                                                 
C 53.485088 41.078722 49.277249                                                 
C 54.803642 43.529071 42.839627                                                 
C 56.191250 41.099039 49.341744                                                 
H 57.255159 34.856890 36.807452                                                 
H 58.679758 37.340418 30.820423                                                 
H 57.253361 34.679417 49.948893                                                 
H 58.554960 37.153058 42.497194                                                 
C 45.487654 41.404144 30.348227                                                 
C 45.434877 41.246292 36.861096                                                 
C 46.822837 43.732340 30.548861                                                 
C 48.121032 41.246905 36.837845                                                 
C 49.521858 39.055704 30.577923                                                 
C 49.486337 38.913641 36.842691                                                 
C 50.877015 41.405550 30.693285                                                 
C 52.168871 38.922704 36.799787                                                 
C 45.379618 41.175040 43.001997                                                 
C 45.392219 41.074389 49.230030                                                 
C 46.718278 43.503240 42.998796                                                 
C 48.094128 41.069248 49.135300                                                 
C 49.422226 38.856131 42.899241                                                 
C 49.475018 38.750941 49.211525                                                 
C 50.763239 41.189935 42.859811                                                 
C 52.163632 38.746299 49.322571                                                 
C 53.583722 36.743738 30.702605                                                 
C 53.538361 36.573903 36.796701                                                 
C 54.968500 39.043868 30.787420                                                 
C 56.210426 36.644733 36.788437                                                 
C 53.454076 36.574334 42.655243                                                 
C 53.530064 36.372344 49.513180                                                 
C 54.815781 38.868026 42.592385                                                 
C 56.204071 36.461111 49.781402                                                 
H 61.281543 37.193872 36.807322                                                 
H 62.691478 39.665399 30.686907                                                 
H 61.288126 37.044628 49.392491                                                 
H 62.570979 39.473351 42.965162                                                 
H 28.268239 61.678336 36.961172                                                 
H 28.167381 61.535540 49.306402                                                 
C 29.391026 60.139094 29.922111                                                 
C 29.280215 59.875970 36.995154                                                 
C 30.685477 62.389063 29.825314                                                 
C 31.976531 59.939077 37.003539                                                 
C 33.376544 57.775066 29.996988                                                 
C 33.311558 57.586390 36.988830                                                 
C 34.722544 60.092994 29.954654                                                 
C 36.007715 57.575296 36.931201                                                 
H 29.661010 64.186058 29.825793                                                 
H 32.306911 64.004537 37.162618                                                 
C 33.382005 62.457084 29.760466                                                 
C 33.338962 62.214053 37.067474                                                 
C 34.763214 64.748127 29.718109                                                 
C 36.016495 62.267383 37.150176                                                 
C 29.311777 59.895929 43.028970                                                 
C 29.194888 59.744936 49.393030                                                 
C 30.592871 62.136648 42.895170                                                 
C 31.892780 59.824060 49.563842                                                 
C 33.298025 57.519248 43.022559                                                 
C 33.228565 57.432941 49.517466                                                 
C 34.639486 59.837582 42.894137                                                 
C 35.944371 57.431985 49.538366                                                 
H 29.566179 63.930537 42.814062                                                 
H 32.239099 63.889753 49.859566                                                 
C 33.298663 62.210223 42.803297                                                 
C 33.270299 62.096483 49.819255                                                 
C 34.670180 64.491050 42.719499                                                 
C 35.945320 62.132086 49.994362                                                 
C 41.447737 57.740358 30.565265                                                 
C 41.387603 57.558793 36.827661                                                 
C 42.802173 60.069720 30.599120                                                 
C 44.076025 57.555606 36.817690                                                 
C 41.370911 57.490608 42.975508                                                 
C 41.318325 57.414383 49.293202                                                 
C 42.725209 59.817264 42.964955                                                 
C 44.011187 57.408515 49.177436                                                 
C 37.433932 60.091915 30.155228                                                 
C 37.365837 59.894994 36.974518                                                 
C 38.792074 62.426306 30.170001                                                 
C 40.054395 59.898592 36.877926                                                 
C 37.347418 59.836899 42.878324                                                 
C 37.298870 59.751345 49.690167                                                 
C 38.707032 62.169068 42.827438                                                 
C 39.987516 59.755101 49.497880                                                 
C 41.431270 53.065747 30.605250                                                 
C 41.374755 52.894215 36.795633                                                 
C 42.786173 55.397314 30.652418                                                 
C 44.062612 52.892901 36.804720                                                 
C 41.354480 52.829163 42.998611                                                 
C 41.308667 52.743794 49.184625                                                 
C 42.705557 55.154533 42.986135                                                 
C 44.002003 52.738153 49.108303                                                 
C 37.406269 55.417834 30.343397                                                 
C 37.346834 55.234434 36.855829                                                 
C 38.761306 57.749396 30.387994                                                 
C 40.032500 55.231975 36.818487                                                 
C 37.330478 55.169644 43.015004                                                 
C 37.275008 55.091634 49.381114                                                 
C 38.684586 57.493546 42.972862                                                 
C 39.966371 55.084332 49.276690                                                 
C 41.439960 67.107138 30.480430                                                 
C 41.460989 66.862866 36.865989                                                 
C 42.871003 69.405719 30.670716                                                 
C 44.091503 66.891146 36.847647                                                 
C 41.384559 66.833342 42.911787                                                 
C 41.388283 66.716736 49.541481                                                 
C 42.811022 69.139067 42.968611                                                 
C 44.021570 66.746650 49.370828                                                 
H 37.794518 68.885129 30.024428                                                 
H 40.433596 68.657572 36.909768                                                 
H 37.732699 68.618445 42.759419                                                 
H 40.364306 68.514311 49.601495                                                 
C 41.465249 62.406629 30.462523                                                 
C 41.414275 62.228102 36.861150                                                 
C 42.823150 64.746554 30.590069                                                 
C 44.091995 62.222136 36.830841                                                 
C 41.395553 62.158566 42.921942                                                 
C 41.353544 62.084993 49.492091                                                 
C 42.748760 64.482366 42.949925                                                 
C 44.024935 62.076483 49.307483                                                 
H 33.732369 66.536890 29.608194                                                 
H 33.636687 66.281901 42.677447                                                 
C 37.436238 64.811013 29.937919                                                 
C 37.405237 64.548274 37.024201                                                 
C 38.811196 67.085601 30.111253                                                 
C 40.065099 64.587115 36.898797                                                 
C 37.354219 64.544944 42.738468                                                 
C 37.344844 64.403135 49.921642                                                 
C 38.754850 66.819451 42.806362                                                 
C 40.006189 64.443829 49.665896                                                 
C 61.675087 41.466226 30.660680                                                 
C 61.533218 41.228958 36.800949                                                 
C 62.966650 43.704581 30.609790                                                 
H 63.599734 41.258364 36.805932                                                 
C 61.675737 46.081954 30.626388                                                 
C 61.511800 45.905034 36.809734                                                 
C 62.969331 48.382082 30.617310                                                 
H 63.579797 45.908782 36.803100                                                 
H 65.035732 43.720102 30.584667                                                 
C 61.559932 41.275222 42.940966                                                 
C 61.524775 41.086384 49.202301                                                 
C 62.855460 43.508917 42.987403                                                 
H 63.587058 41.111060 49.054192                                                 
C 61.563184 45.882512 42.975772                                                 
C 61.498898 45.760475 49.115694                                                 
C 62.854856 48.181988 42.971951                                                 
H 63.567211 45.766799 49.079314                                                 
H 64.925034 43.520379 43.009650                                                 
C 61.700642 55.349763 30.807405                                                 
C 61.507098 55.252077 36.890378                                                 
C 62.986741 57.748374 30.844251                                                 
H 63.575467 55.252051 36.913204                                                 
H 65.056058 53.042316 30.708485                                                 
C 61.571105 55.138178 42.961248                                                 
C 61.493519 55.069164 49.030333                                                 
C 62.866915 57.521765 42.966967                                                 
H 63.560881 55.070400 48.986860                                                 
H 64.929252 52.847817 42.961994                                                 
C 61.689586 50.714403 30.673116                                                 
C 61.508416 50.577673 36.841035                                                 
C 62.986638 53.043310 30.705512                                                 
H 65.039592 48.376059 30.600578                                                 
C 61.567711 50.508735 42.961477                                                 
C 61.487858 50.417124 49.079579                                                 
C 62.857207 52.847862 42.959636                                                 
H 64.926793 48.181568 42.971530                                                 
H 41.839554 71.197547 30.671004                                                 
H 44.463714 70.980954 36.892559                                                 
H 41.770930 70.927575 42.948712                                                 
H 44.385315 70.837203 49.322871                                                 
C 45.487878 69.395140 30.841927                                                 
C 45.514274 69.199873 36.874492                                                 
H 46.523799 71.177377 30.981375                                                 
C 48.094537 69.198421 36.895698                                                 
C 49.561509 67.035494 30.798438                                                 
C 49.505374 66.885176 36.894206                                                 
H 50.598831 68.822619 30.876900                                                 
C 52.139689 66.843809 36.921318                                                 
H 49.145233 70.981337 36.924782                                                 
C 45.389151 69.123474 43.024142                                                 
C 45.435230 69.055565 49.315043                                                 
H 46.446955 70.899525 43.053487                                                 
C 48.018516 69.056075 49.260442                                                 
C 49.428858 66.765746 43.037211                                                 
C 49.429540 66.746348 49.227017                                                 
H 50.466067 68.554939 43.055694                                                 
C 52.068261 66.713049 49.207647                                                 
H 49.067061 70.839302 49.229982                                                 
H 57.220887 66.292574 36.956673                                                 
H 57.149992 66.183602 49.149959                                                 
H 53.177812 68.635524 36.945285                                                 
H 53.099458 68.508322 49.213055                                                 
C 57.606004 62.366626 30.794352                                                 
C 57.523377 62.240220 36.924042                                                 
H 58.642287 64.155771 30.849176                                                 
C 60.235994 62.166237 36.941227                                                 
C 57.518041 62.082569 42.981778                                                 
C 57.469063 62.125134 49.045816                                                 
H 58.555246 63.872330 42.979001                                                 
C 60.190468 62.036707 49.035587                                                 
C 53.577892 64.691644 30.744746                                                 
C 53.512523 64.561141 36.915551                                                 
C 56.182703 64.500847 36.933742                                                 
C 53.472599 64.424092 43.010751                                                 
C 53.447051 64.436606 49.158031                                                 
C 56.113911 64.391879 49.140802                                                 
C 61.677504 60.011202 30.881885                                                 
C 61.519813 59.931350 36.935984                                                 
H 62.704020 61.803971 30.931539                                                 
H 63.586906 59.907090 36.965495                                                 
H 65.054378 57.743962 30.861937                                                 
H 61.254894 63.967643 36.972555                                                 
C 61.575201 59.751884 42.967513                                                 
C 61.494544 59.772114 48.988636                                                 
H 62.589849 61.553294 42.956823                                                 
H 63.560634 59.762711 48.957986                                                 
H 64.937138 57.499111 42.957369                                                 
H 61.223086 63.827981 49.043694                                                 
H 63.555216 50.416550 49.045646                                                 
H 36.309955 34.660351 50.193313                                                 
H 36.325960 66.201773 50.027163                                                 
H 27.198711 50.549002 42.834883                                                 
H 54.508648 66.213652 43.021001                                                 
H 63.576014 50.579064 36.843474                                                 
H 54.491745 34.785160 42.436446                                                 
H 36.343389 34.785212 37.115801                                                 
H 36.382314 66.341695 37.146249                                                 
H 54.614423 66.480951 30.791565                                                 
H 27.278419 50.784111 29.643216                                                 
H 54.618934 34.956944 30.754833                                                 
Li 31.881539 41.436827 26.585029                                                
Li 30.341420 47.994992 33.523683                                                
Li 58.814310 59.670144 52.346358                                                
Li 35.998889 38.621067 33.256146                                                
Li 60.289555 57.744824 27.515293                                                
Li 42.772361 36.254867 33.597974                                                
Li 30.399422 57.475363 52.786433                                                
Li 35.951579 62.435657 46.197535                                                
Li 46.945094 33.947947 52.574924                                                
Li 30.212478 47.945427 46.531663                                                
Li 52.438475 39.020068 27.381668                                                
Li 35.694451 38.785089 46.291128                                                
Li 44.382934 67.140106 27.380068                                                
Li 35.707152 62.745388 33.339373                                                
Li 30.331653 53.291962 33.573620                                                
Li 40.095965 35.385880 46.319293                                                
Li 55.984538 36.901628 45.882675                                                
Li 61.740120 48.992160 45.992640                                                
Li 43.992960 68.739000 45.992640                                                
%ENDBLOCK POSITIONS_ABS                                                         

--------------------------------------------------------------------------------
-------------------------------- END INPUT FILE --------------------------------
--------------------------------------------------------------------------------


 
<<<<<<<<<<<<<<<<<<<<<<<<<<<<<<<<< Full system >>>>>>>>>>>>>>>>>>>>>>>>>>>>>>>>>>
<<<<<<<<<<<<<<<<<<<<<<<<<<< PAW Dataset information >>>>>>>>>>>>>>>>>>>>>>>>>>>
File: ~/pp/paw/c_pbe_abinit.paw; rc = 1.25 bohr; shape type =  3; rshape = 1.25 bohr;
  Atomic number:  6;  ionic charge:  4.000000
    Partial Wave 1: l = 0
    Partial Wave 2: l = 0
    Partial Wave 3: l = 1
    Partial Wave 4: l = 1
  Core charge supplied for Nonlinear Core Corrections
File: ~/pp/paw/h_pbe_abinit.paw; rc = 0.90 bohr; shape type =  3; rshape = 0.90 bohr;
  Atomic number:  1;  ionic charge:  1.000000
    Partial Wave 1: l = 0
    Partial Wave 2: l = 0
File: ~/pp/paw/li_pbe_abinit.paw; rc = 1.42 bohr; shape type =  3; rshape = 1.42 bohr;
  Atomic number:  3;  ionic charge:  3.000000
    Partial Wave 1: l = 0
    Partial Wave 2: l = 0
    Partial Wave 3: l = 0
    Partial Wave 4: l = 1
    Partial Wave 5: l = 1
<<<<<<<<<<<<<<<<<<<<<<<<<<<<<<<<<<<<<<< >>>>>>>>>>>>>>>>>>>>>>>>>>>>>>>>>>>>>>>

-------------------------- Atom counting information ---------------------------
Symbol    Natoms    Nngwfs    Nprojs
  C        484      1936      3872
  H        108       108       216
  Li        19        95       171
.......   ......    ......    ......
Totals:    611      2139      4259
--------------------------------------------------------------------------------

=============================== PSINC grid sizes ===============================
                      Simulation cell:  189 x 189 x 189
                              FFT-box:  117 x 117 x 117
                                  PPD:    7 x   7 x   1
Grid space d1=  0.499927596032a0 (KE cutoff=  30.39413Eh = 827.06648eV)
Grid space d2=  0.499927596032a0 (KE cutoff=  30.39413Eh = 827.06648eV)
Grid space d3=  0.499927596032a0 (KE cutoff=  30.39413Eh = 827.06648eV)
================================================================================
  
WARNING in cell_grid_distribute:
Average of less than one 23-slab per node, so workload cannot be
equally balanced between nodes.

********************* Fourier parallelisation information **********************
       Coarse grid (whole simulation cell) dimensions:    189   189   189
          Real-space ('12') slabs/node (min max mean):      1     2     1
         Recip-space ('23') slabs/node (min max mean):      0     1     0
********************************************************************************

********************* Fourier parallelisation information **********************
       Double grid (whole simulation cell) dimensions:    378   378   378
          Real-space ('12') slabs/node (min max mean):      2     3     2
         Recip-space ('23') slabs/node (min max mean):      1     2     1
********************************************************************************

Atom SCF Calculation for C  : Z (AE atom) =   6 : Z (PS atom) =   4
Config String: 2s2 2p2
Orbitals (num,occ):  2     2.00 2.00
Orbitals   (num,l):  2        0    1
Real-space Grid (nr,dr,rmax): 1377    0.0065406977    9.0000000000
Spherical Bessel Basis (nsws,lmax,cutoff):   37    2  183.0099912382
Confining potential (l,width,scale):  0    3.0000000000  100.0000000000
Confining potential (l,width,scale):  1    3.0000000000  100.0000000000
  1         -5.4350126632   -1.2715272878    4.5135247139   -1.5681949477
  2         -5.3876836850   -1.3562195125    4.4235426751   -1.5380057521
  3         -5.3928844498   -1.3758175853    4.4021699684   -1.5318377811
  4         -5.3988962903   -1.3800385428    4.3975423583   -1.5307324410
  5         -5.4018428823   -1.3823489590    4.3950111904   -1.5301555648
  6         -5.4033571720   -1.3835805046    4.3936635548   -1.5298576834
  7         -5.4041480647   -1.3842324820    4.3929512000   -1.5297032953
  8         -5.4045641108   -1.3845769138    4.3925755232   -1.5296229456
  9         -5.4047838258   -1.3847587737    4.3923775340   -1.5295810042
 10         -5.4049001347   -1.3848548089    4.3922731819   -1.5295590658
 11         -5.4049618018   -1.3849055476    4.3922181562   -1.5295475724
 12         -5.4049945351   -1.3849323732    4.3921891206   -1.5295415432
 13         -5.4050119258   -1.3849465673    4.3921737867   -1.5295383767
 14         -5.4050211723   -1.3849540841    4.3921656816   -1.5295367119
 15         -5.4050260920   -1.3849580684    4.3921613935   -1.5295358358
 16         -5.4050287113   -1.3849601822    4.3921591228   -1.5295353742
 17         -5.4050301068   -1.3849613045    4.3921579192   -1.5295351307
 18         -5.4050308507   -1.3849619010    4.3921572806   -1.5295350022
 19         -5.4050312476   -1.3849622183    4.3921569415   -1.5295349343
 20         -5.4050314594   -1.3849623873    4.3921567612   -1.5295348984
 21         -5.4050315725   -1.3849624773    4.3921566653   -1.5295348794
 22         -5.4050316330   -1.3849625253    4.3921566143   -1.5295348693
Atom SCF converged after  22 iterations to a total energy of     -5.40503163

Atom SCF Calculation for H  : Z (AE atom) =   1 : Z (PS atom) =   1
Config String: 1s1
Orbitals (num,occ):  1     1.00
Orbitals   (num,l):  1        0
Real-space Grid (nr,dr,rmax): 1377    0.0065406977    9.0000000000
Spherical Bessel Basis (nsws,lmax,cutoff):   37    1  183.0099912382
Confining potential (l,width,scale):  0    3.0000000000  100.0000000000
  1         -0.3605254152   -0.2399954029    0.2820952946   -0.2424203210
  2         -0.4156854077   -0.2398249290    0.2871789324   -0.2464796203
  3         -0.4412552402   -0.2379720642    0.2899127187   -0.2499011370
  4         -0.4517265951   -0.2371980236    0.2908966173   -0.2514141636
  5         -0.4557775773   -0.2369735141    0.2911607883   -0.2519713623
  6         -0.4573363459   -0.2369240355    0.2912108681   -0.2521663171
  7         -0.4579443228   -0.2369187864    0.2912112833   -0.2522344454
  8         -0.4581858602   -0.2369215483    0.2912049187   -0.2522587615
  9         -0.4582834939   -0.2369242589    0.2912002081   -0.2522677042
 10         -0.4583235236   -0.2369258837    0.2911975892   -0.2522710965
 11         -0.4583401154   -0.2369267223    0.2911962825   -0.2522724192
 12         -0.4583470483   -0.2369271266    0.2911956643   -0.2522729467
 13         -0.4583499624   -0.2369273145    0.2911953803   -0.2522731607
 14         -0.4583511926   -0.2369274000    0.2911952521   -0.2522732486
 15         -0.4583517136   -0.2369274385    0.2911951948   -0.2522732850
 16         -0.4583519349   -0.2369274556    0.2911951693   -0.2522733002
 17         -0.4583520290   -0.2369274632    0.2911951581   -0.2522733066
Atom SCF converged after  17 iterations to a total energy of     -0.45835203

Atom SCF Calculation for Li : Z (AE atom) =   3 : Z (PS atom) =   3
Config String: 1s2 2s1 2p0
Orbitals (num,occ):  3     2.00 1.00 0.00
Orbitals   (num,l):  3        0    0    1
Real-space Grid (nr,dr,rmax): 1377    0.0065406977    9.0000000000
Spherical Bessel Basis (nsws,lmax,cutoff):   37    2  183.0099912382
Confining potential (l,width,scale):  0    3.0000000000  100.0000000000
Confining potential (l,width,scale):  1    3.0000000000  100.0000000000
  1         -6.0640888065   -4.6655401716    2.5388576516   -0.9989538799
  2         -6.9627542978   -4.0954079129    2.9808988108   -1.1965571426
  3         -7.2692687601   -3.8889996707    3.2029735703   -1.3193883705
  4         -7.3784440298   -3.8322099748    3.2868571989   -1.3711018151
  5         -7.4170278248   -3.8191968371    3.3144974220   -1.3911175539
  6         -7.4303549880   -3.8172386945    3.3228486489   -1.3986896266
  7         -7.4348052089   -3.8175483495    3.3251259310   -1.4015352495
  8         -7.4362242328   -3.8180607346    3.3256233205   -1.4026016384
  9         -7.4366459715   -3.8184145665    3.3256561549   -1.4029998726
 10         -7.4367560626   -3.8186169740    3.3256001574   -1.4031477379
 11         -7.4367765260   -3.8187239825    3.3255481763   -1.4032021548
 12         -7.4367751741   -3.8187782620    3.3255144587   -1.4032219192
 13         -7.4367707398   -3.8188051288    3.3254952336   -1.4032289600
 14         -7.4367680349   -3.8188156035    3.3254870176   -1.4032309087
 15         -7.4367661982   -3.8188217406    3.3254819951   -1.4032318132
 16         -7.4367650112   -3.8188253257    3.3254789583   -1.4032322224
 17         -7.4367642682   -3.8188274151    3.3254771375   -1.4032324006
 18         -7.4367638134   -3.8188286307    3.3254760529   -1.4032324736
 19         -7.4367635392   -3.8188293370    3.3254754103   -1.4032325004
 20         -7.4367633760   -3.8188297469    3.3254750310   -1.4032325080
 21         -7.4367632796   -3.8188299846    3.3254748079   -1.4032325082
Atom SCF converged after  21 iterations to a total energy of     -7.43676328

================================================================================
<<<<<<<<<<<<<<<< Resuming previous ONETEP Geometry Optimisation >>>>>>>>>>>>>>>>
================================================================================

 Geometry Optimisation: output file is "592nano.geom"
 
 Geometry Optimisation: write_hamiltonian parameter over-ridden to T
 Reading continuation file "592nano.continuation" ...done
 Geometry Optimisation: read_tightbox_ngwfs parameter over-ridden to TRUE
 Geometry Optimisation: read_hamiltonian parameter over-ridden to T
 
                           -------------------------------
                                     Cell Contents
                           -------------------------------
 
            xxxxxxxxxxxxxxxxxxxxxxxxxxxxxxxxxxxxxxxxxxxxxxxxxxxxxxxxxxxx
            x  Element    Atom      Absolute co-ordinates of atoms     x
            x            Number        x           y           z       x
            x----------------------------------------------------------x
            x    C         1       45.468324   50.726464   30.689756   x
            x    C         2       45.403349   50.558935   36.807388   x
            x    C         3       46.818463   53.058122   30.727326   x
            x    C         4       48.093577   50.559918   36.826196   x
            x    C         5       49.511619   48.398042   30.717239   x
            x    C         6       49.439342   48.233063   36.820468   x
            x    C         7       50.858368   50.728886   30.743563   x
            x    C         8       52.128870   48.235935   36.815673   x
            x    C         9       45.475871   55.391673   30.707509   x
            x    C        10       45.411898   55.220274   36.827709   x
            x    C        11       46.831545   57.725796   30.725730   x
            x    C        12       48.097971   55.218354   36.845410   x
            x    C        13       49.513639   53.056227   30.752624   x
            x    C        14       49.439145   52.888392   36.844327   x
            x    C        15       50.866165   55.390512   30.762894   x
            x    C        16       52.128240   52.889217   36.846227   x
            x    C        17       45.395237   50.514391   42.979635   x
            x    C        18       45.367578   50.407694   49.053240   x
            x    C        19       46.741505   52.844879   42.977596   x
            x    C        20       48.061941   50.408482   49.023398   x
            x    C        21       49.435106   48.181889   42.947879   x
            x    C        22       49.414773   48.074508   49.050818   x
            x    C        23       50.778578   50.510890   42.936662   x
            x    C        24       52.110552   48.076403   49.119584   x
            x    C        25       45.398420   55.174970   42.990893   x
            x    C        26       45.368131   55.075281   49.073548   x
            x    C        27       46.748353   57.504394   42.991065   x
            x    C        28       48.058639   55.074864   49.024921   x
            x    C        29       49.434146   52.841546   42.958907   x
            x    C        30       49.402756   52.742884   49.011716   x
            x    C        31       50.780919   55.170820   42.965511   x
            x    C        32       52.099353   52.746902   49.061007   x
            x    C        33       57.608907   48.402334   30.694503   x
            x    C        34       57.506005   48.239486   36.760744   x
            x    C        35       58.955017   50.725432   30.701214   x
            x    C        36       60.222928   48.246575   36.728275   x
            x    C        37       57.514300   48.186823   42.727323   x
            x    C        38       57.477908   48.084320   49.463579   x
            x    C        39       58.856710   50.526477   42.675434   x
            x    C        40       60.199969   48.096231   49.771616   x
            x    C        41       53.557477   50.728388   30.744777   x
            x    C        42       53.469984   50.563408   36.823751   x
            x    C        43       54.904762   53.056372   30.761338   x
            x    C        44       56.165559   50.566115   36.796240   x
            x    C        45       53.473768   50.511688   42.896861   x
            x    C        46       53.448814   50.417935   49.149433   x
            x    C        47       54.817561   52.841414   42.896025   x
            x    C        48       56.139972   50.426275   49.306878   x
            x    C        49       57.622562   43.755510   30.694270   x
            x    C        50       57.513421   43.581589   36.740820   x
            x    C        51       58.958113   46.073013   30.663207   x
            x    C        52       60.230072   43.604582   36.731578   x
            x    C        53       57.525036   43.527702   42.747973   x
            x    C        54       57.509897   43.422258   49.388316   x
            x    C        55       58.866374   45.842779   42.686464   x
            x    C        56       60.214324   43.450744   49.444209   x
            x    C        57       53.562896   46.075149   30.726178   x
            x    C        58       53.476357   45.907566   36.789594   x
            x    C        59       54.908350   48.404550   30.722667   x
            x    C        60       56.170114   45.912845   36.763628   x
            x    C        61       53.473928   45.856159   42.866340   x
            x    C        62       53.458260   45.749416   49.180130   x
            x    C        63       54.816185   48.185577   42.852488   x
            x    C        64       56.155014   45.758144   49.327196   x
            x    C        65       57.607715   57.713909   30.840288   x
            x    C        66       57.508189   57.552787   36.879237   x
            x    C        67       58.953614   60.101006   30.849407   x
            x    C        68       60.227066   57.533701   36.885914   x
            x    C        69       57.515853   57.487782   42.932812   x
            x    C        70       57.484044   57.420432   49.004578   x
            x    C        71       58.856678   59.848192   42.963393   x
            x    C        72       60.222139   57.386507   49.034747   x
            x    C        73       45.507445   64.731733   30.727892   x
            x    C        74       45.455886   64.542040   36.797853   x
            x    C        75       46.909410   67.084760   30.802742   x
            x    C        76       48.130104   64.537089   36.840309   x
            x    C        77       49.540494   62.392139   30.750940   x
            x    C        78       49.469507   62.207207   36.865259   x
            x    C        79       50.921197   64.752044   30.762937   x
            x    C        80       52.151725   62.202622   36.895904   x
            x    C        81       45.412737   64.494773   42.842405   x
            x    C        82       45.411008   64.401185   49.646621   x
            x    C        83       46.808727   66.841273   42.799091   x
            x    C        84       48.079839   64.411246   49.428932   x
            x    C        85       49.448393   62.162038   43.002226   x
            x    C        86       49.418969   62.079022   49.234718   x
            x    C        87       50.822059   64.515997   43.002794   x
            x    C        88       52.100507   62.088078   49.137657   x
            x    C        89       53.574138   60.052735   30.769014   x
            x    C        90       53.488052   59.876210   36.893056   x
            x    C        91       54.935084   62.423392   30.762987   x
            x    C        92       56.178064   59.869103   36.902588   x
            x    C        93       53.481789   59.821519   42.985301   x
            x    C        94       53.432374   59.757409   49.037801   x
            x    C        95       54.837999   62.178194   43.005083   x
            x    C        96       56.137295   59.752505   48.985846   x
            x    C        97       57.602986   53.042317   30.756101   x
            x    C        98       57.504927   52.894469   36.809049   x
            x    C        99       58.952918   55.383852   30.815281   x
            x    C       100       60.223024   52.891536   36.791440   x
            x    C       101       57.512563   52.849995   42.825114   x
            x    C       102       57.483229   52.761533   49.274576   x
            x    C       103       58.858331   55.178271   42.861310   x
            x    C       104       60.215936   52.760874   49.421254   x
            x    C       105       45.496945   60.057683   30.688444   x
            x    C       106       45.427963   59.878267   36.828339   x
            x    C       107       46.861943   62.387538   30.722230   x
            x    C       108       48.112391   59.875206   36.850051   x
            x    C       109       49.526287   57.724032   30.756678   x
            x    C       110       49.448130   57.546229   36.860770   x
            x    C       111       50.881025   60.058456   30.754186   x
            x    C       112       52.136550   57.544512   36.874094   x
            x    C       113       45.406407   59.834362   42.980694   x
            x    C       114       45.374131   59.738539   49.283114   x
            x    C       115       46.763425   62.161459   42.967938   x
            x    C       116       48.064159   59.742772   49.183064   x
            x    C       117       49.438282   57.500991   42.982996   x
            x    C       118       49.404460   57.414011   49.055654   x
            x    C       119       50.790903   59.833118   42.997594   x
            x    C       120       52.094449   57.416901   49.020513   x
            x    C       121       53.556841   55.387651   30.776611   x
[...]
 C   231 -- C   241       -0.08      0.00      5.41210
 C    96 -- C   567       -0.09      0.00      5.41234
 C   313 -- C   319       -0.09      0.00      5.41258
 C   440 -- C   488       -0.09      0.00      5.41266
 C   218 -- C   386       -0.09     -0.00      5.41273
 C   205 -- C   263       -0.09      0.00      5.41353
 C    73 -- C    79       -0.09      0.00      5.41384
 C   330 -- C   394       -0.09      0.00      5.41399
 C   481 -- C   489       -0.09      0.00      5.41446
 C    82 -- C   492       -0.09     -0.00      5.41514
 C   216 -- C   234       -0.08      0.00      5.41524
 C    65 -- C    91       -0.09     -0.00      5.41544
 C   293 -- C   295       -0.09      0.00      5.41564
 C   199 -- C   241       -0.08      0.00      5.41572
 C   186 -- C   192       -0.09     -0.00      5.41667
 C   197 -- C   199       -0.09     -0.00      5.41671
 C    70 -- C   104       -0.09     -0.00      5.41682
 C   466 -- C   538       -0.09     -0.00      5.41693
 C   252 -- C   286       -0.08      0.00      5.41700
 C    52 -- C   338       -0.09     -0.00      5.41712
 C   181 -- C   287       -0.08      0.00      5.41761
 C    68 -- C   556       -0.09     -0.00      5.41851
 C   188 -- C   286       -0.08      0.00      5.41856
 C   204 -- C   294       -0.08      0.00      5.41867
 C    38 -- C   104       -0.08      0.00      5.41941
 C   333 -- C   365       -0.09      0.00      5.41972
 C   444 -- C   492       -0.08      0.00      5.41999
 C    71 -- C   516       -0.09     -0.00      5.42049
 C   182 -- C   188       -0.10     -0.00      5.42051
 C   230 -- C   318       -0.09     -0.00      5.42100
 C   252 -- C   406       -0.09     -0.00      5.42138
 C    40 -- C   102       -0.08      0.00      5.42145
 C   261 -- C   427       -0.09     -0.00      5.42209
 C   413 -- C   441       -0.08      0.00      5.42258
 C   205 -- C   207       -0.09      0.00      5.42271
 C   193 -- C   219       -0.09     -0.00      5.42322
 C   186 -- C   212       -0.08      0.00      5.42323
 C   262 -- C   292       -0.09      0.00      5.42329
 C   231 -- C   323       -0.09     -0.00      5.42353
 C   477 -- C   485       -0.09      0.00      5.42406
 H   154 -- Li  608       -0.02      0.00      5.42732
 C   368 -- C   394       -0.08     -0.00      5.42734
 C   470 -- C   547       -0.09     -0.00      5.42783
 C   430 -- C   480       -0.08      0.00      5.42891
 C   220 -- C   238       -0.08      0.00      5.42893
 C    55 -- C   525       -0.08      0.00      5.42899
 C   201 -- C   239       -0.08      0.00      5.42965
 C   229 -- C   235       -0.09      0.00      5.42984
 C   423 -- C   489       -0.08      0.00      5.43326
 C   285 -- C   287       -0.08      0.00      5.43822
 C   189 -- C   191       -0.08      0.00      5.43891
 C   202 -- C   216       -0.08      0.00      5.43982
 C   238 -- C   314       -0.08      0.00      5.44001
 C   409 -- C   485       -0.08      0.00      5.44154
 C   189 -- C   255       -0.08     -0.00      5.44167
 C   227 -- C   309       -0.09     -0.00      5.44180
 C   422 -- C   430       -0.08      0.00      5.44270
 C   206 -- C   292       -0.08      0.00      5.44467
 C   242 -- C   328       -0.08      0.00      5.44508
 C   183 -- C   237       -0.07      0.00      5.44524
 H   588 -- Li  596       -0.03     -0.00      5.44558
 C   233 -- C   239       -0.08      0.00      5.44603
 C   190 -- C   284       -0.08      0.00      5.44615
 C   254 -- C   284       -0.08      0.00      5.44727
 C   319 -- C   361       -0.08      0.00      5.44735
 H   146 -- Li  604       -0.02      0.00      5.44873
 C   377 -- C   391       -0.08      0.00      5.44953
 H   584 -- Li  602       -0.03      0.00      5.44972
 C   224 -- C   242       -0.08      0.00      5.45005
 C   366 -- Li  609       -0.05      0.00      5.45884
 C   185 -- C   235       -0.07      0.00      5.45962
 C    83 -- C   467       -0.08     -0.00      5.47124
 C   234 -- C   332       -0.08     -0.00      5.47958
 C    67 -- C   511       -0.07     -0.00      5.48329
 C    75 -- C   463       -0.08     -0.00      5.48352
 H   141 -- Li  596       -0.02      0.00      5.48361
 C    72 -- C   560       -0.08     -0.00      5.48396
 C   260 -- C   420       -0.08     -0.00      5.48554
 C   181 -- C   183       -0.08      0.00      5.49373
 H   532 -- Li  611       -0.02     -0.00      5.52190
 H   474 -- Li  611       -0.03      0.00      5.53104
 H   591 -- Li  607       -0.02     -0.00      5.58696
 C   234 -- Li  608       -0.07     -0.00      5.59074
 C   365 -- Li  609       -0.05     -0.00      5.59075
 C   181 -- Li  594       -0.08     -0.00      5.60124
 C   134 -- Li  598       -0.07      0.00      5.60482
 C   309 -- Li  598       -0.07      0.00      5.63915
 H   142 -- Li  596       -0.02      0.00      5.64031
 H   591 -- Li  594       -0.01     -0.00      5.66202
 C   104 -- Li  610       -0.06     -0.00      5.66453
 C   198 -- Li  604       -0.06     -0.00      5.66516
=============================================================


============== Orbital energy and occupancy information for spin 1 =============

      Total number of orbitals:    2139
        Occupancy sum (kernel):    1051.000000000
   Occupancy sum (eigenvalues):    1051.000000000
                 HOMO-LUMO gap:       0.002683323 Eh
                 Mid-gap level:      -0.077921547 Eh

                        Orbital | Energy (Eh) | Occupancy
                            1    -1.889125070   1.0000000
                        .......   ...........   .........
                         1042    -0.106416143   0.9999215
                         1043    -0.091392214   0.9910732
                         1044    -0.089123447   0.9818635
                         1045    -0.088058289   0.9747811
                         1046    -0.086684049   0.9616527
                         1047    -0.085079298   0.9379229
                         1048    -0.083816746   0.9102337
                         1049    -0.082373757   0.8652676
                         1050    -0.079987398   0.7514946
                         1051    -0.079263208   0.7063667
                        ....... -- gap at 0K -- .........
                         1052    -0.076579885   0.5075858
                         1053    -0.070597385   0.1348137
                         1054    -0.068586808   0.0764116
                         1055    -0.068139324   0.0670260
                         1056    -0.066051884   0.0357717
                         1057    -0.065669604   0.0318653
                         1058    -0.064646769   0.0232694
                         1059    -0.064001670   0.0190522
                         1060    -0.061443419   0.0085871
                         1061    -0.060622657   0.0066336
                        .......   ...........   .........
                         2139     0.791032975   0.0000000

================================================================================

============== Orbital energy and occupancy information for spin 2 =============

      Total number of orbitals:    2139
        Occupancy sum (kernel):    1050.000000001
   Occupancy sum (eigenvalues):    1050.000000001
                 HOMO-LUMO gap:       0.002723208 Eh
                 Mid-gap level:      -0.077233660 Eh

                        Orbital | Energy (Eh) | Occupancy
                            1    -1.889121376   1.0000000
                        .......   ...........   .........
                         1042    -0.105965134   0.9998496
                         1043    -0.091031604   0.9835080
                         1044    -0.088741336   0.9665340
                         1045    -0.087534919   0.9517422
                         1046    -0.086170564   0.9277218
                         1047    -0.084538572   0.8846232
                         1048    -0.083363151   0.8409875
                         1049    -0.081719817   0.7587109
                         1050    -0.079251521   0.5906487
                         1051    -0.078595264   0.5397199
                        ....... -- gap at 0K -- .........
                         1052    -0.075872056   0.3316307
                         1053    -0.070116491   0.0745712
                         1054    -0.068020002   0.0399719
                         1055    -0.067784328   0.0372181
                         1056    -0.065723864   0.0197358
                         1057    -0.065280775   0.0172206
                         1058    -0.064210915   0.0123404
                         1059    -0.063624163   0.0102707
                         1060    -0.061134193   0.0047058
                         1061    -0.060351301   0.0036763
                        .......   ...........   .........
                         2139     0.791053583   0.0000000

================================================================================

===================== Writing canonical molecular orbitals =====================
    Spin 1
| Orbital  Energy (eV)  Norm     |
| HOMO     -2.15686164  1.000000 | Writing "592nano_HOMO_UP.cube" ... done
Writing "592nano_HOMO_UP.dx" ... done
| LUMO     -2.08384470  1.000000 | Writing "592nano_LUMO_UP.cube" ... done
Writing "592nano_LUMO_UP.dx" ... done
================================================================================

===================== Writing canonical molecular orbitals =====================
    Spin 2
| Orbital  Energy (eV)  Norm     |
| HOMO     -2.13868596  1.000000 | Writing "592nano_HOMO_DN.cube" ... done
Writing "592nano_HOMO_DN.dx" ... done
| LUMO     -2.06458369  1.000000 | Writing "592nano_LUMO_DN.cube" ... done
Writing "592nano_LUMO_DN.dx" ... done
================================================================================

================== Local Density of States (LDOS) calculation ==================
Writing "592nano_UP_LDOS.txt" ...  done
================================================================================

================== Local Density of States (LDOS) calculation ==================
Writing "592nano_DN_LDOS.txt" ...  done
================================================================================
 
=============== Density of States (DOS) calculation for UP spin ================
Writing "592nano_UP_DOS.txt" ...  done
================================================================================
 
============== Density of States (DOS) calculation for DOWN spin ===============
Writing "592nano_DN_DOS.txt" ...  done
================================================================================
 
Writing bands to file "592nano.val_bands" ... done
 
================ Projected Density of States (pDOS) calculation ================
 
Constructing AM resolved functions  ...... done
Writing NGWF plot files in formats: CUBE DX ...  done
 
Performing overlap integrals ...  done
 
Computing pDOS weights ...  done
 
All bands spilling parameter =   4.27 %
Occupancy-weighted spilling parameter =   0.92 %
 
 => Outputting data for OptaDOS <=
 
Writing pDOS weights to file "592nano.val_pdos_bin" ... done
 
Writing band gradients to file "592nano.val_dome_bin" ... done
 
Writing Castep output cell file to "592nano-out.cell" ... done
 
 => Computing Gaussian smeared pDOS for UP spin<= 
Writing "592nano_UP_PDOS.txt" ...  done
 
 => Computing Gaussian smeared pDOS for DOWN spin<= 
Writing "592nano_DN_PDOS.txt" ...  done
 
 => Computing Occupancy-weighted Gaussian smeared pDOS for UP spin<= 
Writing "592nano_occ_UP_PDOS.txt" ...  done
  => Band centres for UP spin channel: 
 S band centre of group 1:  -16.210412 eV
 P band centre of group 1:   -7.859863 eV
  Band centres for UP spin channel done. <= 
  => Integrated number of electrons in each AM band for UP spin channel: 
 S num electrons of group 1:  284.308490
 P num electrons of group 1:  757.011040
  Integrated number of electrons for UP spin channel done. <= 
 
 => Computing Occupancy-weighted Gaussian smeared pDOS for DOWN spin<= 
Writing "592nano_occ_DN_PDOS.txt" ...  done
  => Band centres for DOWN spin channel: 
 S band centre of group 1:  -16.207958 eV
 P band centre of group 1:   -7.867205 eV
  Band centres for DOWN spin channel done. <=
  => Integrated number of electrons in each AM band for DOWN spin channel: 
 S num electrons of group 1:  284.299492
 P num electrons of group 1:  756.033820
  Integrated number of electrons for DOWN spin channel done. <=
================================================================================

================================= Core Density =================================
               Core den box size:   21 x  21 x  21
================================================================================
======================= Empirical dispersion information =======================
Model : Grimme D2
================================================================================

------------------------------ TIMING INFORMATION ------------------------------
AVERAGE TIME:    3334.570s on    150 node(s)                                    
TOTAL TIME:      3334.572s on    150 node(s)                                    
================= AVERAGE TIMINGS FROM ALL NODES (CUMULATIVE) ==================
|| TAG                                    #calls    cpu time   %total  Gflops ||
|| work_imbalance                       :     1        0.00s   0.000%  ------ ||
|| sparse_set_to_garbage                :    24        0.00s   0.000%  ------ ||
|| ewald_calculate_forces_realspace     :     2        0.00s   0.000%  ------ ||
|| paw_dij_hartree                      :   117        0.00s   0.000%  ------ ||
|| basis_extract_function_from_box      :   114        0.01s   0.000%  ------ ||
|| paw_sphere_density_on_grid           :     1        0.01s   0.000%  ------ ||
|| paw_tcore_density                    :     2        0.01s   0.000%  ------ ||
|| ngwfs_initialise_from_radial         :     1        0.02s   0.001%  ------ ||
|| augmentation_density_forces          :     2        0.16s   0.005%  ------ ||
|| ewald_calculate_energy               :     2        0.28s   0.008%  ------ ||
|| paw_tcore_hartree_on_grid            :     2        0.38s   0.011%  ------ ||
|| restart_hamiltonian_write            :     5        0.38s   0.011%  ------ ||
|| restart_hamiltonian_read             :     2        0.45s   0.014%  ------ ||
|| restart_kernel_write                 :     5        0.47s   0.014%  ------ ||
|| density_init_guess_real              :     2        0.49s   0.015%  ------ ||
|| paw_dataset_init                     :     3        0.54s   0.016%  ------ ||
|| ewald_calculate_forces_recipspace    :     2        0.59s   0.018%  ------ ||
|| ewald_calculate_forces               :     2        0.61s   0.018%  ------ ||
|| paw_nlcc_calculate_forces            :     2        0.76s   0.023%  ------ ||
|| pseudo_make_structure_factor         :     2        0.91s   0.027%  ------ ||
|| dense_normal_eigensolve              :     1        1.05s   0.032%  ------ ||
|| ngwf_gradient_coeffs                 :     3        1.24s   0.037%  ------ ||
|| integrals_grad                       :     2        1.55s   0.046%  ------ ||
|| nonsc_forces_ngwfs_calc              :     2        1.55s   0.047%  ------ ||
|| sparse_embed_hotelling_invert_embed  :     4        1.73s   0.052%  ------ ||
|| sparse_init                          :     2        1.78s   0.053%  ------ ||
|| augmentation_screen_dij              :    91        1.96s   0.059%  ------ ||
|| restart_ngwfs_tightbox_input         :     2        2.24s   0.067%  ------ ||
|| paw_tcore_hartree_calc_forces        :     2        2.29s   0.069%  ------ ||
|| fourier_apply_box_pair               :   215        2.47s   0.074%  2.163k ||
|| basis_copy_function_to_box           :  3650        3.41s   0.102%  ------ ||
|| paw_species_calc_proj_prec_mat       :     2        3.79s   0.114%  ------ ||
|| hartree_on_grid                      :    88        4.47s   0.134%  ------ ||
|| integrals_kinetic                    :     4        5.58s   0.167%  ------ ||
|| paw_dij_xc                           :   117        5.65s   0.170%  ------ ||
|| function_ops_brappd_ketppd           :     9        6.30s   0.189%  ------ ||
|| projectors_func_ovlp_box             :     5        7.22s   0.217%  ------ ||
|| sw_init                              :     1        7.52s   0.226%  ------ ||
|| projectors_init_fftbox_recip         :    25        7.86s   0.236%  ------ ||
|| projectors_func_grad_ovlp_box        :     6        9.67s   0.290%  ------ ||
|| aug_nl_calculate_forces              :     2       11.37s   0.341%  ------ ||
|| sparse_trace                         :  2110       11.53s   0.346%  ------ ||
|| augmentation_density_on_grid         :    89       13.86s   0.416%  ------ ||
|| fourier_apply_cell_forward           :   802       15.73s   0.472% 177.434 ||
|| fourier_apply_cell_backward          :   802       16.43s   0.493% 169.925 ||
|| aug_nonlocal_mat                     :   112       18.38s   0.551%  ------ ||
|| basis_dot_function_with_box          : 867.3k      23.70s   0.711%  ------ ||
|| xc_energy_potential                  :    89       31.84s   0.955%  ------ ||
|| restart_ngwfs_tightbox_output        :     2       34.19s   1.025%  ------ ||
|| dense_eigensolve                     :   158       50.51s   1.515%  ------ ||
|| forces_calculate                     :     2       53.88s   1.616%  ------ ||
|| hamiltonian_energy_components        :     2       54.63s   1.638%  ------ ||
|| sparse_product                       :  2123       56.07s   1.681%  ------ ||
|| eigenstates_pdos                     :     1       69.98s   2.099%  ------ ||
|| basis_add_function_to_box            : 2.360M      77.36s   2.320%  ------ ||
|| cell_grid_deposit_box_real           :  6694       97.00s   2.909%  ------ ||
|| integrals_locpot_mat_els_batch       :   132      105.76s   3.172%  ------ ||
|| projectors_gradient_batch            :     6      133.59s   4.006%  ------ ||
|| eigenstates_calculate                :     1      151.92s   4.556%  ------ ||
|| edft_diag_ngwf_ham                   :   156      153.43s   4.601%  ------ ||
|| density_fftbox_deposit_to_cell       :  3026      185.78s   5.571%  ------ ||
|| projectors_grad_precond_batch        :     6      187.97s   5.637%  ------ ||
|| density_batch_row_sums               :   178      193.86s   5.814%  ------ ||
|| potential_apply_to_ngwf_batch        :   132      257.21s   7.713%  ------ ||
|| edft_apply_smearing_operator         :    78      265.21s   7.953%  ------ ||
|| density_fftbox_interpolate_multiply  :  3026      268.95s   8.066%  ------ ||
|| fourier_apply_box                    : 11896      270.24s   8.104%  3.512k ||
|| cell_grid_extract_box_real           :  2250      340.99s  10.226%  ------ ||
|| ngwf_gradient_build_batch            :     6      357.30s  10.715%  ------ ||
|| integrals_locpot_dbl_grid            :    66      364.36s  10.927%  ------ ||
|| ngwf_gradient_batch                  :     6      390.92s  11.723%  ------ ||
|| ngwf_gradient_lnv                    :     3      533.82s  16.009%  ------ ||
|| density_batch_interp_deposit         :   178      558.97s  16.763%  ------ ||
|| density_on_dbl_grid                  :    89      782.12s  23.455%  ------ ||
|| hamiltonian_lhxc_calculate           :    83      814.43s  24.424%  ------ ||
|| properties_calculate                 :     1     1152.32s  34.557%  ------ ||
|| edft_calculate                       :     3     1394.55s  41.821%  ------ ||
|| ngwf_cg_optimise                     :     2     2078.85s  62.342%  ------ ||
|| total_time                           :     1     3334.57s 100.000%  ------ ||
================================================================================
Overhead of generating timer report: 
- 0 ms averaging over threads,
- 29 ms ensuring consistency across MPI ranks,
- 0 ms printing in order.

Job completed: 17-06-2020 23:44 (+0100)

