 +---------------------------------------------------------------+
 |                                                               |
 |        ####### #     # ####### ####### ####### ######         |
 |        #     # ##    # #          #    #       #     #        |
 |        #     # # #   # #          #    #       #     #        |
 |        #     # #  #  # #####      #    #####   ######         |
 |        #     # #   # # #          #    #       #              |
 |        #     # #    ## #          #    #       #              |
 |        ####### #     # #######    #    ####### #              |
 |                                                               |
 |        Linear-Scaling Ab Initio Total Energy Program          |
 |                                                               |
 |          Release for academic collaborators of ODG            |
 |                                             Version 6.1.3.6   |
 |                                                               |
 +---------------------------------------------------------------+
 |                                                               |
 |  Authors:                                                     |
 |  Jacek Dziedzic, Peter D. Haynes, Nicholas D. M. Hine,        |
 |  Arash A. Mostofi, Mike C. Payne and Chris-Kriton Skylaris    |
 |                                                               |
 |  Contributors:                                                |
 |  J. Aarons, L. Andrinopoulos, P. W. Avraam, R. A. Bell,       |
 |  A. Bhandari, G. A. Bramley, R. J. Charlton, S. J. Clark,     |
 |  R. J. Clements, G. C. Constantinescu, F. Corsetti,           |
 |  N. Corsini, O. Dieguez, S. M. M. Dubois, K. K. B. Duff,      |
 |  J. M. Escartin, A. Greco, H. Helal, Q. O. Hill, L. P. Lee,   |
 |  J.-H. Li, E. B. Linscott, G. Moynihan, D. D. O`Regan,        |
 |  O. K. Okan, M. J. S. Phipps, C. J. Pickard,                  |
 |  J. C. A. Prentice, M. I. J. Probert, L. E. Ratcliff,         |
 |  M. Robinson, A. Ruiz Serrano, J. S. Spencer, E. W. Tait,     |
 |  G. Teobaldi, D. Turban, V. Vitale, K. A. Wilkinson,          |
 |  C. Weber, J. C. Womack, N. Yeung and T. J. Zuehlsdorff       |
 |                                                               |
 |                                   Copyright (c) 2004-2021     |
 |                                                               |
 |  Please cite:                                                 |
 |  "The ONETEP linear-scaling density functional theory program"|
 |   J. Chem. Phys. 152(17) 174111 (2020)                        |
 |                                                               |
 |          in all publications arising from your use of ONETEP. |
 |                                                               |
 +---------------------------------------------------------------+
 |                                                               |
 |   ONETEP is based on developments described in the following  |
 |   publications:                                               |
 |                                                               |
 |  "Nonorthogonal generalized Wannier function pseudopotential  |
 |   plane-wave method".                                         |
 |   C.-K. Skylaris, A. A. Mostofi, P. D. Haynes, O. Dieguez,    |
 |   M. C. Payne.                                                |
 |   Phys. Rev. B 66 035119 (2002).                              |
 |                                                               |
 |  "Preconditioned iterative minimization for linear-scaling    |
 |   electronic structure calculations".                         |
 |   A. A. Mostofi, P. D. Haynes, C.-K. Skylaris, M. C. Payne.   |
 |   J. Chem. Phys. 119(17), pp.8842-8848 (2003).                |
 |                                                               |
 |  "Total-energy calculations on a real space grid with         |
 |   localized functions and a plane-wave basis".                |
 |   A. A. Mostofi, C.-K. Skylaris, P. D. Haynes, M. C. Payne.   |
 |   Comput. Phys. Commun. 147, pp.788-802 (2002).               |
 |                                                               |
 |  "Accurate kinetic energy evaluation in electronic structure  |
 |   calculations with localized functions on real space grids"  |
 |   C.-K. Skylaris, A. A. Mostofi, P. D. Haynes, C. J. Pickard, |
 |   M. C. Payne.                                                |
 |   Comput. Phys. Commun. 140, pp.315-322 (2001).               |
 |                                                               |
 |  "Accurate ionic forces and geometry optimization in linear-  |
 |   scaling density-functional theory with local orbitals"      |
 |   N. D. M. Hine, M. Robinson, P. D. Haynes, C.-K. Skylaris,   |
 |   M. C. Payne, and A. A. Mostofi.                             |
 |   Phys. Rev. B 83 195102 (2011).                              |
 |                                                               |
 +---------------------------------------------------------------+

Job started: 14-12-2021 02:39 (-0000)
 
Reading parameters from file "44/592nano.dat" ...... done

If your calculation crashes here, before "Checking processes and threads..."
is displayed, then your stack size is insufficient.
If so, use "ulimit -s unlimited" at runtime.
You can disable this check with "check_stack_size F".

Checking processes and threads...
   Determining the default number of threads...
      No default threads set at compilation time: defaulting to 1.
      OpenMP library call suggests 4 threads.
      Hybrid MPI-OpenMP compilation detected.
      Number of MPI processes > 1.
      OMP_NUM_THREADS environment variable present and
      its value matches the one obtained from the OpenMP library call.
      Using this value as default.
      Default threads: 4
      Default applies to threads_max and threads_num_fftboxes.
      Settings in the input file override this default.
   ... done

   Running with 160 MPI processes.
   There are 16 MPI processes running on the same node as the root process.
   Each MPI process is using: 
               1 threads for simulation cell FFTs.
               1 threads for parallel FFT box operations.
               4 threads for loops over batched FFT box operations.
               4 threads in other parallel regions.
... done

Basic input checks...
Resetting ngwf_cg_rotate to TRUE for EDFT calculations
... done

Reading geometry and species blocks from file "44/592nano.dat" ...    
  Number of PPD points along a3 set to 1.  This is 
  the default value, it may have been provided also in the input file.
... done
 Writing xyz coordinates to file "44/592nano.xyz" ... done


--------------------------------------------------------------------------------
---------------------------------- INPUT FILE ----------------------------------
--------------------------------------------------------------------------------

task : singlepoint                                                              
do_properties : true                                                            
dx_format T                                                                     
edft T                                                                          
edft_spin_fix 3                                                                 
output_detail VERBOSE                                                           
timings_level 3                                                                 
write_xyz T                                                                     
edft_update_scheme: pulay_mix                                                   
edft_ham_diis_size: 10                                                          
edft_trial_step: 0.1                                                            
xc_functional OPTPBE                                                            
cutoff_energy 830 eV                                                            
paw T                                                                           
geom_disp_tol 0.06 bohr                                                         
geom_energy_tol 6E-6 hartree                                                    
geom_force_tol 0.012 "ha/bohr"                                                  
geom_max_iter 25                                                                
EDFT_MAXIT 30                                                                   
pdos_max_l = 2                                                                  
dos_smear  0.1 eV                                                               
popn_calculate T                                                                
PDOS_PSEUDOATOMIC T                                                             
PDOS_REDUCE_SWS F                                                               
PDOS_CONSTRUCT_BASIS F                                                          
PDOS_LOWDIN T                                                                   
PDOS_ORTH_ATOM_BLOCKS F                                                         
PDOS_LCAO_OPTIMIZE F                                                            
pdos_optados_output T                                                           
homo_plot 0                                                                     
lumo_plot 0                                                                     
homo_dens_plot -1                                                               
lumo_dens_plot -1                                                               
%BLOCK SPECIES                                                                  
C C 6 4 9.0                                                                     
H H 1 1 9.0                                                                     
Li Li 3 5 9.0                                                                   
%ENDBLOCK SPECIES                                                               
%BLOCK SPECIES_POT                                                              
C "~/pp/paw/c_pbe_abinit.paw"                                                   
H "~/pp/paw/h_pbe_abinit.paw"                                                   
Li "~/pp/paw/li_pbe_abinit.paw"                                                 
%ENDBLOCK SPECIES_POT                                                           
%BLOCK SPECIES_ATOMIC_SET                                                       
C "SOLVE conf=2s2 2p2"                                                          
H "SOLVE conf=1s1"                                                              
Li "SOLVE conf=1s2 2s1 2p0"                                                     
%ENDBLOCK SPECIES_ATOMIC_SET                                                    
%BLOCK SPECIES_LDOS_GROUPS                                                      
C                                                                               
H                                                                               
Li                                                                              
%ENDBLOCK SPECIES_LDOS_GROUPS                                                   
%BLOCK LATTICE_CART                                                             
94.486315650000      0.000000000000       0.000000000000                        
0.000000000000       94.486315650000      0.000000000000                        
0.000000000000       0.000000000000       94.486315650000                       
%ENDBLOCK LATTICE_CART                                                          
%BLOCK POSITIONS_ABS                                                            
C 42.855669 41.492602 31.473188                                                 
C 38.774031 43.748067 31.670559                                                 
C 41.526459 39.142236 31.071633                                                 
C 45.564583 41.534833 31.479445                                                 
C 37.455130 41.412630 31.258557                                                 
C 37.410589 46.075622 31.808956                                                 
C 54.947318 48.610265 31.343677                                                 
C 54.900950 53.276627 31.326304                                                 
C 53.620304 46.263896 31.446666                                                 
C 38.633668 57.814765 31.906708                                                 
C 42.653206 60.193341 31.765838                                                 
C 37.318305 55.451749 31.958735                                                 
C 53.528354 55.602992 31.434768                                                 
C 45.356761 60.215752 31.719899                                                 
C 46.928155 39.190604 31.248821                                                 
C 41.476446 43.790735 31.744021                                                 
C 34.714806 46.047751 31.600647                                                 
C 50.951870 41.558935 31.301442                                                 
C 53.578581 50.931733 31.529821                                                 
C 34.678419 50.730549 31.727660                                                 
C 41.335735 57.842335 31.978355                                                 
C 38.824969 39.121020 30.885302                                                 
C 54.977222 43.948075 31.149007                                                 
C 49.601917 43.877003 31.629948                                                 
C 37.364720 50.762025 31.989466                                                 
C 49.452450 57.915291 31.719373                                                 
C 34.623447 55.418237 31.705909                                                 
C 57.621768 48.637069 30.909188                                                 
C 50.767803 60.258462 31.388283                                                 
C 57.573858 53.283330 30.874118                                                 
C 37.256281 60.129140 31.583091                                                 
C 54.831035 57.944437 31.080042                                                 
C 50.833857 55.586549 31.732023                                                 
C 46.746737 57.894416 31.878297                                                 
C 41.262426 62.496958 31.435852                                                 
C 46.676808 62.547360 31.343406                                                 
C 46.898909 43.860898 31.721924                                                 
C 50.931171 46.229059 31.682286                                                 
C 38.736616 48.428894 31.997080                                                 
C 38.689849 53.126265 32.073789                                                 
C 49.610503 39.220247 31.152947                                                 
C 33.369508 48.366588 31.538976                                                 
C 42.906650 36.814335 30.754089                                                 
C 53.637498 41.628856 31.014795                                                 
C 34.751375 41.386860 31.109338                                                 
C 33.328054 53.067641 31.521324                                                 
C 45.600109 36.832944 30.923025                                                 
C 33.395573 43.689735 31.323456                                                 
C 58.927568 50.969937 30.636808                                                 
C 53.453513 60.254061 31.055401                                                 
C 49.361293 62.562340 31.179455                                                 
C 38.570736 62.465893 31.316926                                                 
C 50.880355 50.906155 31.793912                                                 
C 42.719126 55.513663 32.097470                                                 
C 42.811733 46.141305 31.948736                                                 
C 57.674662 43.980543 30.879109                                                 
C 58.988030 46.304592 30.695494                                                 
C 33.242098 57.744290 31.511817                                                 
C 34.541949 60.090809 31.415151                                                 
C 58.871416 55.621841 30.468339                                                 
C 49.506774 53.234874 31.894741                                                 
C 45.425109 55.539827 32.047186                                                 
C 57.506691 57.940442 30.563766                                                 
C 49.552748 48.553026 31.851587                                                 
C 41.395225 53.155857 32.144940                                                 
C 42.579347 64.823717 31.016938                                                 
C 41.439437 48.469529 32.067642                                                 
C 45.517724 46.178335 31.920837                                                 
C 45.272214 64.848910 30.962544                                                 
C 37.483826 36.771785 30.296875                                                 
C 46.804730 53.211453 32.042005                                                 
C 42.770005 50.827612 32.131420                                                 
C 46.850990 48.528928 31.983308                                                 
C 41.568072 34.474449 30.161736                                                 
C 33.411802 39.055145 30.690681                                                 
C 50.977408 36.889105 30.723093                                                 
C 55.008365 39.327192 30.544801                                                 
C 30.675573 48.332901 31.112592                                                 
C 46.978132 34.494808 30.598655                                                 
C 30.646343 53.051453 31.019158                                                 
C 30.704838 43.660611 31.117918                                                 
C 45.475574 50.856217 32.086289                                                 
C 61.616240 50.982323 30.065855                                                 
C 38.885808 34.503231 29.973412                                                 
C 34.805658 36.783458 30.258563                                                 
C 37.173195 64.795666 30.857565                                                 
C 59.044493 41.661167 30.679972                                                 
C 54.760375 62.591131 30.513277                                                 
C 50.664269 64.899727 30.630905                                                 
C 61.657713 46.300497 30.172335                                                 
C 30.551792 57.706677 31.264326                                                 
C 61.554419 55.609082 29.909805                                                 
C 33.146244 62.395106 31.002953                                                 
C 41.165022 67.136751 30.616856                                                 
C 58.796623 60.285205 30.047854                                                 
C 46.591729 67.180997 30.451790                                                 
C 49.657162 34.579197 30.605705                                                 
C 29.414216 45.999277 30.975972                                                 
C 62.905606 48.644109 29.760628                                                 
C 53.669045 36.956706 30.615715                                                 
C 62.881658 53.309446 29.859429                                                 
C 57.665257 39.382513 30.547166                                                 
C 29.305643 50.675592 31.077476                                                 
C 42.992962 32.189463 29.944883                                                 
C 34.490559 64.702849 30.666409                                                 
C 38.512635 67.089139 30.695426                                                 
C 29.316745 55.350880 31.007192                                                 
C 30.728035 39.066447 30.825443                                                 
C 45.634820 32.203197 30.177586                                                 
C 29.411669 41.320695 31.008278                                                 
C 57.383904 62.574013 30.112863                                                 
C 53.384762 64.935717 30.611346                                                 
C 49.278945 67.147764 30.363109                                                 
H 37.866627 32.729252 29.581779                                                 
H 33.772234 34.992272 29.932928                                                 
C 63.003284 43.962827 30.256398                                                 
C 61.725464 41.705308 30.552247                                                 
C 62.775545 57.972554 29.416252                                                 
C 29.199461 60.025757 31.246076                                                 
C 30.453002 62.306153 31.127122                                                 
C 61.420996 60.236531 29.454784                                                 
C 42.537444 69.424462 30.151898                                                 
C 45.173140 69.431518 30.040313                                                 
H 64.934289 53.320721 29.497924                                                 
H 64.946924 48.643862 29.319485                                                 
H 50.705243 32.830916 30.104421                                                 
H 41.973309 30.395136 29.670569                                                 
H 29.711822 37.250590 30.745605                                                 
H 27.364068 45.961157 30.526350                                                 
H 37.461322 68.874236 30.472394                                                 
H 33.430276 66.475385 30.408400                                                 
H 58.740625 37.583835 30.470564                                                 
H 27.237389 55.329548 30.766429                                                 
H 46.697229 30.413142 30.067316                                                 
H 54.719308 35.235167 30.019186                                                 
H 27.332030 41.323104 31.026114                                                 
H 27.378097 50.655603 30.254228                                                 
H 58.340275 64.343034 29.535764                                                 
H 50.275382 68.903609 29.812909                                                 
H 65.076610 43.979624 30.034984                                                 
H 62.764941 39.903107 30.613585                                                 
H 54.284386 66.578779 29.672367                                                 
H 64.807349 57.966046 28.970926                                                 
H 29.388417 64.096616 31.083094                                                 
H 27.118114 59.966328 31.266158                                                 
H 41.463947 71.181879 29.858213                                                 
H 62.386643 62.034998 29.052630                                                 
H 46.197652 71.205510 29.673973                                                 
C 44.226113 39.045971 37.479787                                                 
C 36.069106 43.726755 37.448601                                                 
C 40.151058 41.401424 37.514900                                                 
C 41.522370 39.068291 37.468930                                                 
C 49.641874 39.065783 37.193801                                                 
C 37.457023 41.414735 37.364410                                                 
C 48.272578 41.408349 37.399283                                                 
C 53.701863 41.441373 37.182374                                                 
C 45.574948 41.394532 37.531639                                                 
C 52.319907 43.753595 37.305045                                                 
C 36.039892 48.384817 37.740601                                                 
C 37.410256 46.061732 37.675633                                                 
C 45.581483 36.702542 37.379331                                                 
C 35.999132 53.063335 37.923076                                                 
C 33.327476 48.368639 37.614717                                                 
C 53.656743 46.111296 37.340359                                                 
C 52.375359 39.076931 37.139184                                                 
C 33.297499 53.046837 37.865720                                                 
C 56.353997 46.128629 37.074188                                                 
C 33.362427 43.715770 37.279296                                                 
C 49.605585 43.758997 37.464929                                                 
C 37.346517 55.402053 37.946033                                                 
C 48.288349 36.710838 37.269406                                                 
C 41.497092 43.736687 37.667456                                                 
C 37.385680 50.726249 37.895047                                                 
C 35.986243 57.727574 37.857264                                                 
C 56.418327 41.426475 37.075770                                                 
C 56.319666 50.839030 37.142080                                                 
C 53.626970 50.811372 37.449780                                                 
C 53.603683 55.504915 37.479046                                                 
C 31.936153 50.700036 37.790846                                                 
C 45.467867 60.135726 37.730040                                                 
C 41.416186 57.756711 37.866702                                                 
C 57.730661 43.790302 36.891297                                                 
C 31.984404 46.021868 37.417273                                                 
C 52.235525 57.824853 37.539781                                                 
C 44.206322 43.736973 37.671128                                                 
C 48.163701 60.164702 37.672923                                                 
C 40.122823 46.068296 37.760013                                                 
C 40.045207 60.085214 37.729735                                                 
C 49.533910 57.818084 37.685523                                                 
C 52.299408 48.455225 37.524011                                                 
C 57.666446 48.506378 36.935204                                                 
C 40.066726 55.416771 37.954450                                                 
C 56.307839 55.522949 37.234523                                                 
C 52.267471 53.148801 37.581111                                                 
C 44.122682 57.781158 37.840921                                                 
C 40.182113 36.729197 37.327554                                                 
C 31.923270 55.386231 37.792434                                                 
C 44.097768 62.462690 37.598463                                                 
C 36.087594 39.074019 37.137386                                                 
C 33.277564 57.720344 37.709510                                                 
C 37.352737 60.057866 37.771903                                                 
C 57.638462 53.185597 37.005339                                                 
C 41.384067 62.420496 37.511368                                                 
C 48.254728 46.088398 37.655974                                                 
C 40.083599 50.741565 37.932522                                                 
C 48.202258 55.471783 37.789763                                                 
C 44.222216 34.302080 37.372813                                                 
C 53.756470 36.718762 37.277385                                                 
C 53.576791 60.194042 37.378759                                                 
C 49.593562 48.447376 37.684768                                                 
C 49.492251 62.520667 37.573584                                                 
C 41.435829 53.091074 37.957603                                                 
C 45.488461 55.451243 37.876684                                                 
C 49.567170 53.135877 37.742370                                                 
C 45.544222 46.082936 37.741227                                                 
C 41.463707 48.409499 37.870135                                                 
C 31.982124 41.384031 36.996798                                                 
C 37.470223 36.739604 37.217781                                                 
C 49.666203 34.298270 37.268778                                                 
C 41.513285 34.369755 37.208027                                                 
C 57.650237 57.862461 37.181964                                                 
C 57.845886 39.045468 37.048432                                                 
C 33.394996 39.098479 37.117424                                                 
C 45.430712 64.815441 37.540775                                                 
C 44.144720 53.103947 37.917413                                                 
C 48.225688 50.780030 37.785015                                                 
C 29.189860 50.665280 37.936842                                                 
C 44.175054 48.419752 37.845911                                                 
C 60.388460 48.527469 36.702589                                                 
C 52.194526 62.542712 37.441187                                                 
C 45.517072 50.767955 37.866242                                                 
C 60.458625 43.809427 36.630903                                                 
C 29.224362 45.950406 37.554367                                                 
C 56.288381 60.207811 37.301040                                                 
C 56.493055 36.689233 37.330033                                                 
C 29.167556 55.401269 37.720091                                                 
C 48.136120 64.851037 37.594185                                                 
C 60.320707 53.220167 36.567597                                                 
C 52.379738 34.380862 37.527332                                                 
C 36.002875 62.392185 37.632412                                                 
C 31.893319 60.046418 37.424999                                                 
C 40.034194 64.766745 37.228093                                                 
C 45.597637 32.002061 37.121384                                                 
C 27.826402 53.004736 38.006700                                                 
C 61.735576 46.190689 36.698048                                                 
C 27.903074 48.297994 37.981348                                                 
C 61.655665 50.897163 36.533582                                                 
C 48.300918 32.022477 37.074679                                                 
C 29.310360 41.370219 36.897461                                                 
C 33.272481 62.400124 37.654442                                                 
C 60.487100 39.156002 36.633456                                                 
C 37.348687 64.705238 37.344885                                                 
C 60.394647 57.892479 36.974570                                                 
H 36.463289 34.894374 37.100692                                                 
H 40.449535 32.560879 37.254794                                                 
C 61.769824 41.484204 36.436154                                                 
C 44.034725 67.192035 37.508799                                                 
H 32.273454 37.329806 36.955131                                                 
C 61.657078 55.546389 36.570856                                                 
C 27.945625 43.619306 37.304217                                                 
C 41.351087 67.087602 37.266243                                                 
H 57.498293 34.908407 36.857923                                                 
C 27.893037 57.723546 37.484001                                                 
C 29.236268 60.000699 37.327269                                                 
H 53.443605 32.576774 37.569530                                                 
C 53.554512 64.933453 37.630022                                                 
H 44.560233 30.193263 37.006196                                                 
H 25.742980 52.979568 37.903374                                                 
C 57.683692 62.604829 37.384291                                                 
C 49.488172 67.263214 37.695492                                                 
H 63.830200 46.186473 36.832708                                                 
H 28.312114 39.565457 36.614890                                                 
H 25.847966 48.243284 38.341019                                                 
H 63.751195 50.951201 36.296334                                                 
H 49.341990 30.228513 36.914019                                                 
H 61.537834 37.372552 36.460693                                                 
H 32.249483 64.165010 37.108779                                                 
H 36.317343 66.500864 36.941165                                                 
H 63.833028 41.520728 36.186436                                                 
H 63.701978 55.546388 36.113837                                                 
H 25.861973 43.579378 37.410731                                                 
H 25.813730 57.736400 37.385249                                                 
C 61.698364 60.252298 36.894224                                                 
H 40.264790 68.865178 37.209314                                                 
C 45.403176 69.524264 37.471925                                                 
H 28.216107 61.798064 37.083469                                                 
C 52.190192 67.223599 37.815195                                                 
C 56.253174 64.896653 37.736362                                                 
C 60.344598 62.582582 37.158360                                                 
C 48.090555 69.542836 37.625858                                                 
H 63.781217 60.252983 36.832684                                                 
H 44.342180 71.314052 37.535558                                                 
H 53.225789 69.003707 38.154585                                                 
H 57.279262 66.679938 38.082398                                                 
H 61.389018 64.381403 37.224820                                                 
H 49.109453 71.354563 37.734379                                                 
H 28.558984 37.981840 44.170437                                                 
H 40.356118 30.120221 44.661538                                                 
H 32.492924 35.293298 43.873155                                                 
H 36.440237 32.692961 44.504600                                                 
H 45.077885 29.834547 44.556742                                                 
H 26.464877 42.273530 44.183007                                                 
C 41.511359 31.847651 44.523254                                                 
C 29.732216 39.698045 44.095805                                                 
H 61.899195 37.963401 43.427219                                                 
C 33.650241 37.028957 44.026431                                                 
C 37.586143 34.432146 44.390830                                                 
C 44.127352 31.684453 44.460526                                                 
H 49.263847 31.901990 44.550276                                                 
H 64.561184 41.953872 43.310721                                                 
C 28.540683 42.130822 44.162898                                                 
H 65.537185 56.087043 43.762481                                                 
H 26.840704 47.038542 44.124503                                                 
H 27.789961 60.989355 44.772021                                                 
H 53.416663 33.937064 44.262049                                                 
H 57.649566 35.962851 44.022717                                                 
H 30.424854 64.971302 44.731397                                                 
H 27.229592 51.675160 44.808568                                                 
H 65.249336 51.344179 43.455564                                                 
H 43.185453 71.171440 44.394502                                                 
H 63.434655 60.331895 44.174192                                                 
H 27.544316 56.233838 45.078152                                                 
H 64.880009 46.678976 43.283925                                                 
C 32.391938 39.450047 44.048949                                                 
C 40.277072 34.226736 44.512726                                                 
H 47.970509 70.832289 44.500537                                                 
C 36.367211 36.799990 44.190336                                                 
H 38.909509 69.118387 44.201878                                                 
C 60.991389 39.833936 43.509206                                                 
C 62.489323 42.090993 43.426905                                                 
H 34.681477 67.103262 44.455305                                                 
C 48.330372 33.753413 44.331759                                                 
C 63.455486 56.209944 43.814287                                                 
C 28.909734 46.851444 44.378113                                                 
H 59.496207 62.949551 44.499749                                                 
C 29.871292 60.852889 44.720464                                                 
C 45.648676 33.894959 44.385557                                                 
H 51.847316 68.138824 44.319501                                                 
H 55.634738 65.505075 44.670545                                                 
C 30.015788 44.384223 44.138345                                                 
C 31.362014 63.109923 44.623510                                                 
C 52.509725 35.803969 43.973271                                                 
C 62.276465 58.601051 44.041444                                                 
C 56.733182 37.817010 43.662663                                                 
C 44.095012 69.299751 44.402238                                                 
C 29.325543 51.508138 44.740988                                                 
C 63.164215 51.498765 43.486570                                                 
C 29.623064 56.141701 44.798747                                                 
C 62.804828 46.815006 43.388739                                                 
C 46.794218 69.117498 44.517844                                                 
C 49.815725 35.939566 44.117087                                                 
C 58.302607 40.000117 43.537907                                                 
C 39.827019 67.249419 44.197179                                                 
C 54.032705 38.006055 43.570001                                                 
C 30.437935 49.081054 44.501565                                                 
C 61.363582 44.513808 43.452071                                                 
C 35.590371 65.219506 44.340071                                                 
C 41.773097 36.504731 44.209301                                                 
C 62.006568 53.975532 43.706373                                                 
C 33.951621 41.735082 43.974738                                                 
C 31.037971 58.423584 44.527136                                                 
C 45.409004 50.380599 43.594224                                                 
C 30.816859 53.732207 44.838097                                                 
C 37.876782 39.105831 44.018786                                                 
C 61.676027 49.246465 43.451312                                                 
C 46.924000 52.625991 43.617773                                                 
C 58.356939 61.200459 44.351815                                                 
C 42.709150 50.569835 43.651906                                                 
C 46.595105 47.940266 43.549134                                                 
C 44.453117 36.334114 44.141781                                                 
C 34.019067 62.974169 44.385050                                                 
C 50.656035 66.426011 44.322947                                                 
C 42.552977 67.135090 44.283640                                                 
C 32.766214 44.190429 44.060260                                                 
C 54.471479 63.778174 44.516794                                                 
C 59.600402 58.796980 44.137242                                                 
C 45.735095 55.060162 43.688254                                                 
C 49.628266 52.436038 43.602040                                                 
C 41.196303 48.313157 43.655123                                                 
C 45.081163 45.694977 43.560524                                                 
C 38.291170 65.054065 44.204129                                                 
C 41.525166 53.006063 43.742453                                                 
C 49.298689 47.752936 43.529781                                                 
C 47.995048 66.687968 44.396974                                                 
C 40.573327 38.933544 43.967676                                                 
C 36.654999 41.543607 43.893452                                                 
C 42.375222 45.873790 43.602599                                                 
C 43.031284 55.259178 43.752989                                                 
C 50.819219 50.001518 43.552945                                                 
C 48.624502 38.403826 43.889684                                                 
C 55.676239 61.388842 44.421453                                                 
C 33.152265 48.885581 44.288309                                                 
C 52.835889 40.468630 43.516409                                                 
C 57.074984 42.460285 43.503739                                                 
C 51.816366 64.020547 44.158167                                                 
C 58.589944 44.726309 43.540086                                                 
C 45.936389 38.580961 43.878441                                                 
C 46.264530 43.260298 43.577236                                                 
C 38.500704 48.496970 43.780266                                                 
C 34.293575 46.433772 44.040451                                                 
C 33.486270 53.553499 44.427766                                                 
C 50.479155 45.317360 43.516615                                                 
C 38.829292 53.193870 43.874633                                                 
C 51.140810 54.677996 43.677735                                                 
C 40.864397 43.626768 43.661632                                                 
C 50.140148 40.640638 43.646809                                                 
C 47.251942 57.301396 43.751609                                                 
C 33.769024 58.236952 44.339282                                                 
C 59.250388 54.128864 43.725551                                                 
C 42.064446 41.182181 43.725012                                                 
C 38.171236 43.805762 43.756575                                                 
C 48.952703 43.080308 43.556431                                                 
C 44.747326 41.006217 43.690403                                                 
C 58.926613 49.449350 43.541409                                                 
C 37.332671 50.944498 43.925751                                                 
C 35.258478 60.500508 44.252563                                                 
C 36.991217 46.244619 43.830746                                                 
C 34.651577 51.129035 44.207094                                                 
C 54.370569 42.683979 43.488274                                                 
C 53.515082 49.804920 43.556807                                                 
C 49.950922 57.100990 43.768310                                                 
C 43.735076 64.611336 44.238901                                                 
C 41.849328 57.692610 43.870790                                                 
C 58.056086 56.538613 43.915569                                                 
C 34.956513 55.813574 44.238764                                                 
C 53.186688 45.124499 43.523298                                                 
C 57.404692 47.167637 43.568431                                                 
C 39.468647 62.566366 44.127551                                                 
C 37.646836 55.636323 44.001815                                                 
C 57.739064 51.890293 43.607575                                                 
C 54.684171 47.370736 43.552352                                                 
C 46.448637 64.413569 44.221166                                                 
C 53.850642 54.485809 43.695221                                                 
C 55.037541 52.067451 43.603647                                                 
C 39.135967 57.885527 43.973038                                                 
C 46.052609 59.727542 43.863445                                                 
C 37.947103 60.318062 44.097713                                                 
C 54.160833 59.145556 44.075962                                                 
C 43.369939 59.922664 43.938445                                                 
C 50.279951 61.759040 44.017224                                                 
C 42.206522 62.378846 44.108591                                                 
C 51.467896 59.341262 43.947112                                                 
C 55.364117 56.726384 43.883479                                                 
C 47.589557 61.972697 44.007628                                                 
H 43.843736 29.853334 50.281348                                                 
H 28.017356 39.519430 51.612280                                                 
H 48.559991 29.707710 50.218298                                                 
H 60.857330 36.454751 51.154031                                                 
H 63.285254 40.500573 51.424041                                                 
H 25.745266 43.659536 51.872602                                                 
H 28.458767 61.743870 51.927720                                                 
H 25.964360 57.678449 51.893185                                                 
H 36.069466 34.738132 51.222376                                                 
H 39.913004 32.300890 50.441843                                                 
H 32.060428 37.138626 51.581605                                                 
H 63.565220 49.822183 51.147258                                                 
H 36.664632 66.103974 52.024884                                                 
H 63.765228 59.034705 51.953326                                                 
H 44.815352 70.553161 52.573515                                                 
H 63.441455 45.180043 51.147141                                                 
H 32.591656 63.912141 51.979786                                                 
H 52.636181 31.943394 50.400816                                                 
H 56.735093 34.183753 51.013813                                                 
H 63.644019 54.406850 51.533611                                                 
H 61.496649 63.183535 52.279409                                                 
H 40.708109 68.354355 52.079272                                                 
H 49.548906 70.490248 52.441505                                                 
H 25.888955 53.011812 51.727529                                                 
H 25.876848 48.356474 52.203797                                                 
C 44.963255 31.607821 50.161950                                                 
C 47.555732 31.532771 50.129157                                                 
C 29.078876 41.302991 51.461732                                                 
C 59.880732 38.278767 50.937082                                                 
C 27.806435 43.612281 51.585603                                                 
C 61.231237 40.540829 51.104022                                                 
C 28.032778 57.653891 51.646991                                                 
C 29.421878 59.913235 51.678136                                                 
H 57.535795 65.637748 52.149029                                                 
H 53.578499 68.098937 52.066158                                                 
C 41.000571 34.072032 50.256759                                                 
C 37.062492 36.498165 50.655656                                                 
C 33.068469 38.870149 50.969972                                                 
C 61.711035 59.144695 51.641446                                                 
C 45.825597 68.789132 52.132562                                                 
C 60.449789 61.450826 51.814293                                                 
C 51.656239 33.778893 50.275419                                                 
C 48.468313 68.758838 52.040755                                                 
C 55.759841 36.004129 50.745970                                                 
C 61.380386 45.241683 50.838065                                                 
C 61.545613 49.890857 50.583674                                                 
C 33.534084 62.150229 51.353311                                                 
C 37.616069 64.374286 51.330102                                                 
C 27.889837 48.316335 51.668383                                                 
C 27.944621 52.975293 51.376389                                                 
C 61.632819 54.513409 50.969178                                                 
C 41.705174 66.576629 51.648177                                                 
C 43.638128 33.963293 50.091419                                                 
C 49.015070 33.815876 50.072830                                                 
C 31.737338 41.191909 51.051082                                                 
C 57.189169 38.265430 50.676409                                                 
C 29.130656 45.952645 51.382920                                                 
C 60.017588 42.927956 50.812601                                                 
C 29.269785 55.280331 51.255797                                                 
C 39.709164 36.382186 50.261241                                                 
C 32.074411 59.902015 51.232142                                                 
C 35.733749 38.801682 50.682495                                                 
C 53.077696 36.024635 50.434681                                                 
C 56.471752 63.911376 51.685814                                                 
C 52.507161 66.365870 51.650035                                                 
C 29.211041 50.632803 51.346967                                                 
C 45.360826 50.310621 49.355771                                                 
C 60.382645 56.883210 51.068447                                                 
C 60.154583 47.584955 50.664335                                                 
C 44.388813 66.569314 51.633860                                                 
C 36.190794 62.102852 51.170385                                                 
C 60.268575 52.257625 50.664287                                                 
C 40.303954 64.345362 51.351067                                                 
C 57.774505 61.612147 51.455916                                                 
C 49.829067 66.473903 51.589886                                                 
C 44.061553 52.681473 49.455036                                                 
C 48.074609 50.251297 49.354912                                                 
C 43.949963 47.999768 49.364588                                                 
C 53.833788 64.038561 51.454767                                                 
C 45.476370 54.991171 49.553753                                                 
C 49.486272 52.562354 49.445225                                                 
C 45.050474 36.268452 49.878669                                                 
C 41.351952 52.734433 49.557917                                                 
C 49.369455 47.881443 49.378749                                                 
C 47.728166 36.198598 49.890769                                                 
C 33.104112 43.526853 50.662239                                                 
C 41.246087 48.056001 49.472400                                                 
C 45.255510 45.625543 49.351863                                                 
C 31.812431 45.881772 50.819691                                                 
C 55.920591 40.677299 50.297680                                                 
C 57.319843 42.984437 50.369441                                                 
C 31.967413 55.239622 50.785239                                                 
C 33.354522 57.538665 50.735406                                                 
C 48.188975 54.931627 49.556322                                                 
C 39.944683 50.423534 49.577320                                                 
C 47.960159 45.567328 49.367046                                                 
C 51.809531 38.435368 50.042038                                                 
C 41.086937 38.698005 49.907947                                                 
C 37.095743 41.129107 50.167933                                                 
C 57.690076 56.990578 50.640899                                                 
C 31.902161 50.553420 50.742466                                                 
C 45.707504 64.243005 51.050037                                                 
C 57.438915 47.669181 50.212537                                                 
C 56.393759 59.335467 50.832205                                                 
C 37.477503 59.763282 50.567362                                                 
C 48.402652 64.190057 51.053019                                                 
C 57.568298 52.353691 50.187359                                                 
C 41.601515 62.002529 50.730913                                                 
C 40.050179 55.100071 49.770126                                                 
C 44.180963 57.351320 49.797495                                                 
C 52.195063 52.498798 49.570845                                                 
C 52.066422 47.818166 49.543045                                                 
C 39.844760 45.736325 49.595485                                                 
C 49.135581 38.501990 49.776704                                                 
C 43.856556 43.314064 49.449150                                                 
C 43.759471 38.636590 49.738955                                                 
C 35.786894 43.474622 50.171521                                                 
C 53.224707 40.750559 49.968377                                                 
C 33.188488 48.207297 50.484281                                                 
C 33.256573 52.872575 50.454475                                                 
C 39.767417 41.062666 49.846488                                                 
C 41.467125 57.398663 49.910305                                                 
C 56.042814 45.366723 50.064506                                                 
C 53.486359 50.124726 49.626214                                                 
C 41.152458 43.372031 49.581807                                                 
C 36.057104 57.494776 50.366499                                                 
C 52.414749 61.751291 50.850536                                                 
C 37.240173 50.472435 49.826855                                                 
C 56.180042 50.047467 49.942647                                                 
C 49.253157 43.194857 49.486585                                                 
C 40.172226 59.735522 50.348787                                                 
C 49.602774 57.229024 49.823238                                                 
C 56.294377 54.709049 50.148051                                                 
C 44.297886 61.970338 50.568569                                                 
C 45.160162 40.948640 49.531491                                                 
C 37.154290 45.786967 49.867198                                                 
C 37.343270 55.143884 49.997606                                                 
C 53.354270 45.438852 49.713072                                                 
C 47.853501 40.884838 49.550494                                                 
C 35.851228 48.159308 50.003823                                                 
C 51.949224 43.126371 49.673844                                                 
C 35.940806 52.833600 50.039871                                                 
C 45.598061 59.643431 50.088373                                                 
C 53.704123 59.425929 50.493038                                                 
C 49.713521 61.843777 50.621517                                                 
C 53.601876 54.799114 49.834386                                                 
C 48.304392 59.582803 50.110806                                                 
C 52.307841 57.157989 49.985841                                                 
Li 59.777909 41.379300 40.032206                                                
Li 31.817467 60.645607 41.219910                                                
Li 30.598375 42.039005 40.720813                                                
Li 46.466587 67.559588 40.846154                                                
Li 59.778662 60.169683 40.461622                                                
Li 54.439932 62.388325 40.766910                                                
Li 41.175911 64.909454 40.944479                                                
Li 39.516053 35.408989 40.865787                                                
Li 29.091011 54.145390 41.434412                                                
Li 30.897597 47.921852 40.865481                                                
Li 51.013106 37.620455 40.598998                                                
Li 62.575219 53.255013 39.873411                                                
Li 62.642360 52.512454 47.447231                                                
Li 59.788635 47.013952 40.252163                                                
Li 35.161221 38.814768 40.818574                                                
Li 46.820306 33.739853 40.553766                                                
Li 55.337838 35.408343 40.795886                                                
Li 34.850715 64.876990 40.547784                                                
Li 56.351753 64.396237 33.712703                                                
Li 60.228808 47.077933 46.829179                                                
Li 51.481410 67.080076 33.856402                                                
Li 51.750702 64.703207 47.978655                                                
Li 34.840216 64.377048 48.193082                                                
Li 40.915498 64.865414 47.541827                                                
Li 59.744204 59.801788 48.019248                                                
Li 46.678649 67.631658 48.282113                                                
Li 28.241638 49.041468 47.810270                                                
Li 59.734314 40.774017 47.300388                                                
Li 34.162936 36.410656 47.900244                                                
Li 27.879424 48.017065 34.014436                                                
Li 43.979775 67.969751 33.713607                                                
Li 39.751288 35.928786 33.627075                                                
Li 61.035804 58.362737 33.130653                                                
Li 29.887384 43.195759 47.923330                                                
Li 52.230888 34.358057 33.601658                                                
Li 28.997899 53.171313 34.376279                                                
Li 62.856189 48.322280 33.578725                                                
Li 54.811470 37.432311 47.202061                                                
Li 29.525660 58.405600 48.067853                                                
Li 34.951955 63.719304 34.260173                                                
Li 43.935309 33.583990 33.573097                                                
Li 34.723238 37.021016 34.040859                                                
Li 56.041307 37.729545 33.766107                                                
Li 54.491280 53.491440 40.493520                                                
%ENDBLOCK POSITIONS_ABS                                                         

--------------------------------------------------------------------------------
-------------------------------- END INPUT FILE --------------------------------
--------------------------------------------------------------------------------


 
<<<<<<<<<<<<<<<<<<<<<<<<<<<<<<<<< Full system >>>>>>>>>>>>>>>>>>>>>>>>>>>>>>>>>>
<<<<<<<<<<<<<<<<<<<<<<<<<<< PAW Dataset information >>>>>>>>>>>>>>>>>>>>>>>>>>>
File: ~/pp/paw/c_pbe_abinit.paw; rc = 1.25 bohr; shape type =  3; rshape = 1.25 bohr;
  Atomic number:  6;  ionic charge:  4.000000
    Partial Wave 1: l = 0
    Partial Wave 2: l = 0
    Partial Wave 3: l = 1
    Partial Wave 4: l = 1
  Core charge supplied for Nonlinear Core Corrections
File: ~/pp/paw/h_pbe_abinit.paw; rc = 0.90 bohr; shape type =  3; rshape = 0.90 bohr;
  Atomic number:  1;  ionic charge:  1.000000
    Partial Wave 1: l = 0
    Partial Wave 2: l = 0
File: ~/pp/paw/li_pbe_abinit.paw; rc = 1.42 bohr; shape type =  3; rshape = 1.42 bohr;
  Atomic number:  3;  ionic charge:  3.000000
    Partial Wave 1: l = 0
    Partial Wave 2: l = 0
    Partial Wave 3: l = 0
    Partial Wave 4: l = 1
    Partial Wave 5: l = 1
<<<<<<<<<<<<<<<<<<<<<<<<<<<<<<<<<<<<<<< >>>>>>>>>>>>>>>>>>>>>>>>>>>>>>>>>>>>>>>

-------------------------- Atom counting information ---------------------------
Symbol    Natoms    Nngwfs    Nprojs
  C        484      1936      3872
  H        108       108       216
  Li        44       220       396
.......   ......    ......    ......
Totals:    636      2264      4484
--------------------------------------------------------------------------------

=============================== PSINC grid sizes ===============================
                      Simulation cell:  189 x 189 x 189
                              FFT-box:  117 x 117 x 117
                                  PPD:    7 x   7 x   1
Grid space d1=  0.499927596032a0 (KE cutoff=  30.39413Eh = 827.06648eV)
Grid space d2=  0.499927596032a0 (KE cutoff=  30.39413Eh = 827.06648eV)
Grid space d3=  0.499927596032a0 (KE cutoff=  30.39413Eh = 827.06648eV)
================================================================================
  
WARNING in cell_grid_distribute:
Average of less than one 23-slab per proc, so workload cannot be
equally balanced between procs.

********************* Fourier parallelisation information **********************
       Coarse grid (whole simulation cell) dimensions:    189   189   189
          Real-space ('12') slabs/proc (min max mean):      1     2     1
         Recip-space ('23') slabs/proc (min max mean):      0     1     0
********************************************************************************

********************* Fourier parallelisation information **********************
       Double grid (whole simulation cell) dimensions:    378   378   378
          Real-space ('12') slabs/proc (min max mean):      2     3     2
         Recip-space ('23') slabs/proc (min max mean):      1     2     1
********************************************************************************

Atom SCF Calculation for C  : Z (AE atom) =   6 : Z (PS atom) =   4
Config String: 2s2 2p2
Orbitals (num,occ):  2     2.00 2.00
Orbitals   (num,l):  2        0    1
Real-space Grid (nr,dr,rmax): 1377    0.0065406977    9.0000000000
Spherical Bessel Basis (nsws,lmax,cutoff):   37    2  183.0099912382
Confining potential (l,width,scale):  0    3.0000000000  100.0000000000
Confining potential (l,width,scale):  1    3.0000000000  100.0000000000
  1         -5.4795186097   -1.3252230651    4.5135247139   -1.6370402178
  2         -5.4480873667   -1.4027986130    4.4305957006   -1.6109824140
  3         -5.4553175168   -1.4212842775    4.4102621601   -1.6059044058
  4         -5.4627851864   -1.4247099971    4.4065125496   -1.6052912254
  5         -5.4662317525   -1.4266823431    4.4043718731   -1.6049357348
  6         -5.4679531179   -1.4277361345    4.4032352159   -1.6047498153
  7         -5.4688370531   -1.4282876632    4.4026436340   -1.6046546171
  8         -5.4692962224   -1.4285743132    4.4023378281   -1.6046060967
  9         -5.4695360875   -1.4287229388    4.4021801230   -1.6045813828
 10         -5.4696617783   -1.4287999625    4.4020988354   -1.6045687883
 11         -5.4697277645   -1.4288398966    4.4020569195   -1.6045623641
 12         -5.4697624500   -1.4288606199    4.4020352864   -1.6045590836
 13         -5.4697806994   -1.4288713865    4.4020241086   -1.6045574064
 14         -5.4697903086   -1.4288769875    4.4020183254   -1.6045565478
 15         -5.4697953717   -1.4288799052    4.4020153292   -1.6045561077
 16         -5.4697980412   -1.4288814272    4.4020137746   -1.6045558818
 17         -5.4697994496   -1.4288822223    4.4020129668   -1.6045557657
 18         -5.4698001930   -1.4288826382    4.4020125465   -1.6045557059
 19         -5.4698005858   -1.4288828561    4.4020123274   -1.6045556751
 20         -5.4698007933   -1.4288829704    4.4020122131   -1.6045556592
 21         -5.4698009031   -1.4288830304    4.4020121533   -1.6045556509
 22         -5.4698009612   -1.4288830620    4.4020121220   -1.6045556467
Atom SCF converged after  22 iterations to a total energy of     -5.46980096

Atom SCF Calculation for H  : Z (AE atom) =   1 : Z (PS atom) =   1
Config String: 1s1
Orbitals (num,occ):  1     1.00
Orbitals   (num,l):  1        0
Real-space Grid (nr,dr,rmax): 1377    0.0065406977    9.0000000000
Spherical Bessel Basis (nsws,lmax,cutoff):   37    1  183.0099912382
Confining potential (l,width,scale):  0    3.0000000000  100.0000000000
  1         -0.3687944832   -0.2607687933    0.2820952946   -0.2613406499
  2         -0.4328656062   -0.2590521405    0.2895573663   -0.2701762133
  3         -0.4633856573   -0.2560091938    0.2934204754   -0.2757429988
  4         -0.4750266404   -0.2549676794    0.2946557510   -0.2779015032
  5         -0.4793045155   -0.2546870695    0.2949704774   -0.2786577123
  6         -0.4808919118   -0.2546234645    0.2950332622   -0.2789201171
  7         -0.4814942533   -0.2546130669    0.2950388368   -0.2790132353
  8         -0.4817280090   -0.2546133926    0.2950352123   -0.2790473458
  9         -0.4818204053   -0.2546148712    0.2950319888   -0.2790602287
 10         -0.4818574273   -0.2546158825    0.2950301416   -0.2790652181
 11         -0.4818724050   -0.2546164247    0.2950292178   -0.2790671871
 12         -0.4818785049   -0.2546166894    0.2950287833   -0.2790679748
 13         -0.4818810009   -0.2546168128    0.2950285855   -0.2790682928
 14         -0.4818820255   -0.2546168689    0.2950284970   -0.2790684221
 15         -0.4818824471   -0.2546168940    0.2950284580   -0.2790684748
 16         -0.4818826210   -0.2546169051    0.2950284408   -0.2790684964
 17         -0.4818826928   -0.2546169100    0.2950284333   -0.2790685053
Atom SCF converged after  17 iterations to a total energy of     -0.48188269

Atom SCF Calculation for Li : Z (AE atom) =   3 : Z (PS atom) =   3
Config String: 1s2 2s1 2p0
Orbitals (num,occ):  3     2.00 1.00 0.00
Orbitals   (num,l):  3        0    0    1
Real-space Grid (nr,dr,rmax): 1377    0.0065406977    9.0000000000
Spherical Bessel Basis (nsws,lmax,cutoff):   37    2  183.0099912382
Confining potential (l,width,scale):  0    3.0000000000  100.0000000000
Confining potential (l,width,scale):  1    3.0000000000  100.0000000000
  1         -6.1314629607   -4.7499359229    2.5388576516   -1.0480231927
  2         -7.0450508208   -4.1702030791    2.9795337774   -1.2623862962
  3         -7.3518474013   -3.9564527259    3.2037296734   -1.3880788964
  4         -7.4613386962   -3.8947565558    3.2914990517   -1.4402825036
  5         -7.5001516047   -3.8789668192    3.3221434609   -1.4602864917
  6         -7.5136113510   -3.8755528126    3.3322769691   -1.4678164580
  7         -7.5181182589   -3.8751724459    3.3354399675   -1.4706394447
  8         -7.5195538340   -3.8753832694    3.3363346353   -1.4716958846
  9         -7.5199777516   -3.8756112412    3.3365363545   -1.4720903919
 10         -7.5200869011   -3.8757624244    3.3365501247   -1.4722372325
 11         -7.5201065703   -3.8758489541    3.3365264569   -1.4722916218
 12         -7.5201049812   -3.8758952022    3.3365040630   -1.4723116262
 13         -7.5201006323   -3.8759190019    3.3364892955   -1.4723189110
 14         -7.5200980758   -3.8759285770    3.3364824548   -1.4723210036
 15         -7.5200963811   -3.8759342877    3.3364781194   -1.4723220111
 16         -7.5200953120   -3.8759376792    3.3364754203   -1.4723224913
 17         -7.5200946593   -3.8759396866    3.3364737619   -1.4723227171
 18         -7.5200942701   -3.8759408718    3.3364727530   -1.4723228213
 19         -7.5200940419   -3.8759415700    3.3364721439   -1.4723228682
 20         -7.5200939099   -3.8759419808    3.3364717784   -1.4723228886
 21         -7.5200938343   -3.8759422222    3.3364715600   -1.4723228969
Atom SCF converged after  21 iterations to a total energy of     -7.52009383

Determining parallel strategy ...
... using space-filling curve
... NGWF load balancing: max     17;  min     12;  average     14
... Projector load balancing: max     34;  min     24;  average     28
... done
Calculating Ewald energy ...
              Ewald: real-space energy =   37779.756325
        Ewald: reciprocal-space energy =   37285.781229
         Ewald: (sum_charge)**2 Energy =    2913.621724
         Ewald: (sum_charge**2) Energy =     255.989758
                          Ewald Energy =   71895.926072
Basis initialisation ...... NGWF spheres initialised
... Projector spheres initialised
... NGWF tight boxes initialised
... Projector tight boxes initialised
... Tight-boxes gathered
... NGWF basis size (local,global):     284030  45691104
... PAW projector initialisation
... done

============================= Charge Augmentation ==============================
                           Aug box size:   13 x  13 x  13
================================================================================

========================== Sparse matrix information ===========================
                        Overlap matrix filling:  37.39%
                        Density kernel filling: 100.00%
              NGWF-Proj overlap matrix filling:  10.43%
                    Aug Overlap matrix filling:  41.82%
                    Hamiltonian matrix filling:  41.82%
                  NGWF diagonal matrix filling:   0.17%
                             KS matrix filling: 100.00% 
                           KSKS matrix filling: 100.00% 
================================================================================

Sparse matrix initialisation ... done
NGWF initialisation ...... done
============ Calculation of NGWF S^-1 using Hotelling algorithm ================ 
         Iteration  |  Frobenius norm and Maximum abs value    (of I-S*S_n^-1)   
               1       0.47341084E+02     0.99743408E+00
               2       0.47111238E+02     0.99488052E+00
               3       0.46680467E+02     0.98980953E+00
               4       0.45917862E+02     0.97980567E+00
               5       0.44687944E+02     0.96030680E+00
               6       0.42935235E+02     0.92330737E+00
               7       0.40699926E+02     0.85520296E+00
               8       0.38009247E+02     0.80456040E+00
               9       0.34952048E+02     0.78993202E+00
              10       0.31838454E+02     0.77035216E+00
              11       0.28770582E+02     0.74779823E+00
              12       0.25221081E+02     0.72749431E+00
              13       0.20593679E+02     0.69414038E+00
              14       0.14805245E+02     0.64825532E+00
              15       0.88649679E+01     0.57009865E+00
              16       0.46633179E+01     0.46242632E+00
              17       0.26566025E+01     0.39735312E+00
              18       0.15822565E+01     0.30417823E+00
              19       0.89086504E+00     0.21555754E+00
              20       0.42439873E+00     0.12287892E+00
              21       0.12658147E+00     0.41012960E-01
              22       0.12969526E-01     0.45817652E-02
              23       0.15636311E-03     0.57199703E-04
              24       0.24297814E-07     0.89158565E-08
              25       0.69661934E-13     0.79936058E-14
================================================================================
Calculating core density ...
================================= Core Density =================================
               Core den box size:   21 x  21 x  21
================================================================================
 ... done
Up spin density kernel initialisation ...... done
Down spin density kernel initialisation ...... done

Writing density kernel to file "44/592nano.dkn" ... done

>>> Optimising kernel for current NGWFs:

--------------------------- Ensemble-DFT optimisation --------------------------
Running ScaLAPACK on  160 processor(s).

--------------------------------------------------------------------------------
  Iter                              Commutator    Free_energy(A=E-TS)     DeltaA
#    0                          0.001363159137   -3156.64786529648882  -3.16E+03

Step                       =       0.381966011250
Energy (E)                 =   -3156.612803665409
Entropy (-TS)              =      -0.035061631080
Free energy (A=E-TS)       =   -3156.647865296489
Est. 0K Energy 0.5*(E+A)   =   -3156.630334480949
Residual Non-orthogonality =       0.000000000000
Residual N_electrons       =       0.000000000000

Spin          Integrated_Ne            Fermi_level     Delta_Fermi_level
   1      1088.000000000000        -0.224250278991             -2.24E-01
   2      1088.000000000000        -0.224250278991             -2.24E-01

                           Spin 1           |                 Spin 2           |
     Orb |    H-eigenvalues     Occupancies |    H-eigenvalues     Occupancies |
       1 |    -1.9075448966    1.0000000000 |    -1.9075448966    1.0000000000 | 
                          ------                             ------
    1083 |    -0.2394526866    0.9918418064 |    -0.2394526866    0.9918418064 | 
    1084 |    -0.2374388643    0.9847021369 |    -0.2374388643    0.9847021369 | 
    1085 |    -0.2345909657    0.9632201109 |    -0.2345909657    0.9632201109 | 
    1086 |    -0.2298571747    0.8545220400 |    -0.2298571747    0.8545220400 | 
    1087 |    -0.2249884426    0.5580109913 |    -0.2249884426    0.5580109913 | 
                  Finite temp. Fermi level   |      Finite temp. Fermi level  
    1088 |    -0.2232546917    0.4220455945 |    -0.2232546917    0.4220455945 | 
                 - Gap at zero temperature - |     - Gap at zero temperature -
    1089 |    -0.2215389562    0.2981405723 |    -0.2215389562    0.2981405723 | 
    1090 |    -0.2211544600    0.2733717623 |    -0.2211544600    0.2733717623 | 
    1091 |    -0.2199017396    0.2021097507 |    -0.2199017396    0.2021097507 | 
    1092 |    -0.2179810273    0.1213536797 |    -0.2179810273    0.1213536797 | 
                          ------                             ------
    2264 |     0.5553093225    0.0000000000 |     0.5553093225    0.0000000000 | 

                            |  Abs_value |  Threshold | Converged
     Delta_Free_energy/atom |   4.96E+00 |   1.00E-06 |        No
     Delta_Energy/atom      |   4.96E+00 |   1.00E-04 |        No
     Delta_Entropy/atom     |   5.51E-05 |   1.00E-04 |       Yes
     Commutator             |   1.36E-03 |   1.00E-05 |        No
     Delta_Fermi_level      |   2.24E-01 |   1.00E-03 |        No

  Line search of the free energy minimum:
  Step_type        Step             Free_energy   Predicted_free_energy
.   Initial    0.000000    -3156.64786529648882

Performing  Pulay mixing of Hamiltonian with coefficients:
                        Spin 1               Spin 2
                1.000000000000       1.000000000000
Lambda-->      42.791773618995      42.791773617626     ... done

.    Trial1    0.381966    -3156.46578951627907

Performing  Pulay mixing of Hamiltonian with coefficients:
                        Spin 1               Spin 2
                1.000000000000       1.000000000000
Lambda-->      42.791773618995      42.791773617626     ... done

.    Trial2    0.145898    -3157.67413323633764

Performing  Pulay mixing of Hamiltonian with coefficients:
                        Spin 1               Spin 2
                1.000000000000       1.000000000000
Lambda-->      42.791773618995      42.791773617626     ... done

. Quadratic    0.183492    -3157.73874351051199    -3157.71909923184967

[...]
 H   276 -- Li  593       -0.01      0.00      5.64863
 H   312 -- Li  604       -0.02     -0.00      5.64965
 H   275 -- Li  608       -0.01     -0.00      5.65121
 C   408 -- Li  631       -0.05     -0.00      5.65127
 H   147 -- Li  625       -0.01      0.00      5.65160
 C   214 -- Li  636       -0.06     -0.00      5.65174
 H   273 -- Li  602       -0.01      0.00      5.65464
 C   391 -- Li  617       -0.06     -0.00      5.65784
 C   120 -- Li  632       -0.06     -0.00      5.66159
 C    51 -- Li  613       -0.04      0.00      5.66312
 C   155 -- Li  603       -0.06     -0.00      5.66540
=============================================================


============== Orbital energy and occupancy information for spin 1 =============

      Total number of orbitals:    2264
        Occupancy sum (kernel):    1088.000000061
   Occupancy sum (eigenvalues):    1088.000000061
                 HOMO-LUMO gap:       0.002303722 Eh
                 Mid-gap level:      -0.077175630 Eh

                        Orbital | Energy (Eh) | Occupancy
                            1    -1.856069386   1.0000000
                        .......   ...........   .........
                         1079    -0.097040098   0.9974275
                         1080    -0.093738204   0.9925164
                         1081    -0.091166043   0.9839950
                         1082    -0.090186310   0.9773897
                         1083    -0.089246608   0.9698625
                         1084    -0.087355893   0.9456493
                         1085    -0.085189487   0.8992659
                         1086    -0.081569739   0.7371156
                         1087    -0.081030607   0.6921381
                         1088    -0.078327491   0.4997420
                        ....... -- gap at 0K -- .........
                         1089    -0.076023769   0.3302768
                         1090    -0.074609429   0.2417839
                         1091    -0.072831045   0.1545765
                         1092    -0.072291691   0.1298990
                         1093    -0.071585312   0.1080964
                         1094    -0.070560200   0.0810529
                         1095    -0.069682166   0.0642846
                         1096    -0.067738643   0.0358854
                         1097    -0.067393098   0.0315270
                         1098    -0.066813638   0.0263487
                        .......   ...........   .........
                         2264     0.766194155   0.0000000

================================================================================

============== Orbital energy and occupancy information for spin 2 =============

      Total number of orbitals:    2264
        Occupancy sum (kernel):    1087.999999939
   Occupancy sum (eigenvalues):    1087.999999939
                 HOMO-LUMO gap:       0.002303722 Eh
                 Mid-gap level:      -0.077175630 Eh

                        Orbital | Energy (Eh) | Occupancy
                            1    -1.856069385   1.0000000
                        .......   ...........   .........
                         1079    -0.097040098   0.9974275
                         1080    -0.093738204   0.9925164
                         1081    -0.091166043   0.9839950
                         1082    -0.090186310   0.9773897
                         1083    -0.089246608   0.9698625
                         1084    -0.087355892   0.9456493
                         1085    -0.085189487   0.8992659
                         1086    -0.081569740   0.7371156
                         1087    -0.081030607   0.6921381
                         1088    -0.078327491   0.4997420
                        ....... -- gap at 0K -- .........
                         1089    -0.076023769   0.3302767
                         1090    -0.074609429   0.2417839
                         1091    -0.072831045   0.1545764
                         1092    -0.072291691   0.1298990
                         1093    -0.071585312   0.1080964
                         1094    -0.070560200   0.0810529
                         1095    -0.069682166   0.0642846
                         1096    -0.067738643   0.0358854
                         1097    -0.067393098   0.0315270
                         1098    -0.066813638   0.0263487
                        .......   ...........   .........
                         2264     0.766194154   0.0000000

================================================================================

===================== Writing canonical molecular orbitals =====================
    Spin 1
| Orbital  Energy (eV)  Norm     |
| HOMO     -2.13139948  1.000000 | Writing "44/592nano_HOMO_UP.cube" ... done
Writing "44/592nano_HOMO_UP.dx" ... done
| LUMO     -2.06871201  1.000000 | Writing "44/592nano_LUMO_UP.cube" ... done
Writing "44/592nano_LUMO_UP.dx" ... done
================================================================================

===================== Writing canonical molecular orbitals =====================
    Spin 2
| Orbital  Energy (eV)  Norm     |
| HOMO     -2.13139948  1.000000 | Writing "44/592nano_HOMO_DN.cube" ... done
Writing "44/592nano_HOMO_DN.dx" ... done
| LUMO     -2.06871201  1.000000 | Writing "44/592nano_LUMO_DN.cube" ... done
Writing "44/592nano_LUMO_DN.dx" ... done
================================================================================

================== Local Density of States (LDOS) calculation ==================
Writing "44/592nano_UP_LDOS.txt" ...  done
================================================================================

================== Local Density of States (LDOS) calculation ==================
Writing "44/592nano_DN_LDOS.txt" ...  done
================================================================================
 
=============== Density of States (DOS) calculation for UP spin ================
Writing "44/592nano_UP_DOS.txt" ...  done
================================================================================
 
============== Density of States (DOS) calculation for DOWN spin ===============
Writing "44/592nano_DN_DOS.txt" ...  done
================================================================================
 
Writing bands to file "44/592nano.val_bands" ... done
 
================ Projected Density of States (pDOS) calculation ================
 
Constructing AM resolved functions  ...... done
Writing NGWF plot files in formats: CUBE DX ...  done
 
Performing overlap integrals ...  done
 
Computing pDOS weights ...  done
 
All bands spilling parameter =   4.28 %
Occupancy-weighted spilling parameter =   0.79 %
 
 => Outputting data for OptaDOS <=
 
Writing pDOS weights to file "44/592nano.val_pdos_bin" ... done
 
Writing band gradients to file "44/592nano.val_dome_bin" ... done
 
Writing Castep output cell file to "44/592nano-out.cell" ... done
 
 => Computing Gaussian smeared pDOS for UP spin<= 
Writing "44/592nano_UP_PDOS.txt" ...  done
 
 => Computing Gaussian smeared pDOS for DOWN spin<= 
Writing "44/592nano_DN_PDOS.txt" ...  done
 
 => Computing Occupancy-weighted Gaussian smeared pDOS for UP spin<= 
Writing "44/592nano_occ_UP_PDOS.txt" ...  done
  => Band centres for UP spin channel: 
 S band centre of group 1:  -18.947443 eV
 P band centre of group 1:   -8.221827 eV
  Band centres for UP spin channel done. <= 
  => Integrated number of electrons in each AM band for UP spin channel: 
 S num electrons of group 1:  310.260953
 P num electrons of group 1:  769.148793
  Integrated number of electrons for UP spin channel done. <= 
 
 => Computing Occupancy-weighted Gaussian smeared pDOS for DOWN spin<= 
Writing "44/592nano_occ_DN_PDOS.txt" ...  done
  => Band centres for DOWN spin channel: 
 S band centre of group 1:  -18.947443 eV
 P band centre of group 1:   -8.221827 eV
  Band centres for DOWN spin channel done. <=
  => Integrated number of electrons in each AM band for DOWN spin channel: 
 S num electrons of group 1:  310.260953
 P num electrons of group 1:  769.148793
  Integrated number of electrons for DOWN spin channel done. <=
================================================================================

------------------------------ TIMING INFORMATION ------------------------------
AVERAGE TIME:    8802.224s on    160 proc(s)                                    
TOTAL TIME:      8802.272s on    160 proc(s)                                    
================= AVERAGE TIMINGS FROM ALL PROCS (CUMULATIVE) ==================
|| TAG                                    #calls    cpu time   %total  Gflops ||
|| work_imbalance                       :     1        0.00s   0.000%  ------ ||
|| paw_tcore_density                    :     1        0.01s   0.000%  ------ ||
|| sparse_set_to_garbage                :   246        0.01s   0.000%  ------ ||
|| paw_dij_hartree                      :   265        0.01s   0.000%  ------ ||
|| paw_sphere_density_on_grid           :     1        0.01s   0.000%  ------ ||
|| basis_extract_function_from_box      :   396        0.03s   0.000%  ------ ||
|| ngwfs_initialise_from_radial         :     2        0.03s   0.000%  ------ ||
|| ewald_calculate_energy               :     1        0.08s   0.001%  ------ ||
|| pseudo_make_structure_factor         :     1        0.24s   0.003%  ------ ||
|| paw_dataset_init                     :     3        0.28s   0.003%  ------ ||
|| paw_tcore_hartree_on_grid            :     1        0.36s   0.004%  ------ ||
|| density_init_guess_real              :     1        0.89s   0.010%  ------ ||
|| dense_normal_eigensolve              :     1        0.92s   0.010%  ------ ||
|| sparse_init                          :     1        1.06s   0.012%  ------ ||
|| restart_kernel_write                 :    15        1.18s   0.013%  ------ ||
|| paw_species_calc_proj_prec_mat       :     1        1.53s   0.017%  ------ ||
|| augmentation_screen_dij              :   185        2.81s   0.032%  ------ ||
|| sw_init                              :     1        5.01s   0.057%  ------ ||
|| ngwf_gradient_coeffs                 :    14        7.28s   0.083%  ------ ||
|| sparse_embed_hotelling_invert_embed  :    28        7.40s   0.084%  ------ ||
|| basis_copy_function_to_box           :  7952        8.15s   0.093%  ------ ||
|| paw_dij_xc                           :   265        8.37s   0.095%  ------ ||
|| hartree_on_grid                      :   180       11.69s   0.133%  ------ ||
|| fourier_apply_box_pair               :   997       14.49s   0.165%  1.819k ||
|| aug_nonlocal_mat                     :   251       15.18s   0.172%  ------ ||
|| projectors_init_fftbox_recip         :    86       21.96s   0.249%  ------ ||
|| augmentation_density_on_grid         :   180       23.64s   0.269%  ------ ||
|| sparse_trace                         :  7930       25.11s   0.285%  ------ ||
|| basis_dot_function_with_box          : 2.240M      43.08s   0.489%  ------ ||
|| projectors_func_ovlp_box             :    29       51.74s   0.588%  ------ ||
|| integrals_kinetic                    :    28       64.24s   0.730%  ------ ||
|| eigenstates_pdos                     :     1       70.52s   0.801%  ------ ||
|| function_ops_brappd_ketppd           :    58      108.70s   1.235%  ------ ||
|| hamiltonian_energy_components        :     3      110.87s   1.260%  ------ ||
|| eigenstates_calculate                :     1      136.11s   1.546%  ------ ||
|| dense_eigensolve                     :   294      146.29s   1.662%  ------ ||
|| basis_add_function_to_box            : 5.654M     155.70s   1.769%  ------ ||
|| fourier_apply_cell_forward           :  6624      164.46s   1.868% 140.185 ||
|| restart_ngwfs_tightbox_output        :    13      188.20s   2.138%  ------ ||
|| sparse_product                       : 11219      214.66s   2.439%  ------ ||
|| cell_grid_deposit_box_real           : 13413      243.35s   2.765%  ------ ||
|| fourier_apply_cell_backward          :  7341      244.46s   2.777% 104.521 ||
|| cell_grid_extract_box_real           :  5172      384.43s   4.367%  ------ ||
|| density_batch_row_sums               :   360      397.97s   4.521%  ------ ||
|| integrals_locpot_mat_els_batch       :   314      409.75s   4.655%  ------ ||
|| edft_diag_ngwf_ham                   :   292      450.90s   5.123%  ------ ||
|| projectors_gradient_batch            :    28      454.75s   5.166%  ------ ||
|| xc_energy_potential                  :   179      462.64s   5.256%  ------ ||
|| density_fftbox_deposit_to_cell       :  6120      498.61s   5.665%  ------ ||
|| density_fftbox_interpolate_multiply  :  6120      529.77s   6.019%  ------ ||
|| fourier_apply_box                    : 26587      552.92s   6.282%  4.119k ||
|| nlxc_vdw_energy                      :   358      619.78s   7.041%  ------ ||
|| edft_apply_smearing_operator         :   146      701.84s   7.973%  ------ ||
|| potential_apply_to_ngwf_batch        :   314      761.65s   8.653%  ------ ||
|| properties_calculate                 :     1      923.84s  10.496%  ------ ||
|| projectors_grad_precond_batch        :    28     1172.71s  13.323%  ------ ||
|| integrals_locpot_dbl_grid            :   157     1174.24s  13.340%  ------ ||
|| density_batch_interp_deposit         :   360     1350.10s  15.338%  ------ ||
|| ngwf_gradient_build_batch            :    28     1793.99s  20.381%  ------ ||
|| density_on_dbl_grid                  :   180     1873.68s  21.286%  ------ ||
|| ngwf_gradient_batch                  :    28     1956.74s  22.230%  ------ ||
|| hamiltonian_lhxc_calculate           :   175     2406.78s  27.343%  ------ ||
|| ngwf_gradient_lnv                    :    14     2772.16s  31.494%  ------ ||
|| edft_calculate                       :    14     4215.43s  47.891%  ------ ||
|| ngwf_cg_optimise                     :     1     7847.69s  89.156%  ------ ||
|| total_time                           :     1     8802.22s 100.000%  ------ ||
================================================================================
==================== AVERAGE TIMINGS FROM ALL PROCS (SELF) =====================
++ TAG                                    #calls    cpu time   %total  Gflops ++
++ nlxc_vdw_energy                      :   358       -4.72s  -0.054%  ------ ++
++ work_imbalance                       :     1        0.00s   0.000%  ------ ++
++ paw_tcore_density                    :     1        0.00s   0.000%  ------ ++
++ paw_sphere_density_on_grid           :     1        0.01s   0.000%  ------ ++
++ sparse_set_to_garbage                :   246        0.01s   0.000%  ------ ++
++ paw_dij_hartree                      :   265        0.01s   0.000%  ------ ++
++ paw_tcore_hartree_on_grid            :     1        0.01s   0.000%  ------ ++
++ basis_extract_function_from_box      :   396        0.03s   0.000%  ------ ++
++ ngwfs_initialise_from_radial         :     2        0.03s   0.000%  ------ ++
++ sparse_embed_hotelling_invert_embed  :    28        0.03s   0.000%  ------ ++
++ ngwf_gradient_coeffs                 :    14        0.07s   0.001%  ------ ++
++ ewald_calculate_energy               :     1        0.08s   0.001%  ------ ++
++ pseudo_make_structure_factor         :     1        0.24s   0.003%  ------ ++
++ paw_dataset_init                     :     3        0.28s   0.003%  ------ ++
++ density_init_guess_real              :     1        0.48s   0.005%  ------ ++
++ hartree_on_grid                      :   180        0.63s   0.007%  ------ ++
++ dense_normal_eigensolve              :     1        0.92s   0.010%  ------ ++
++ aug_nonlocal_mat                     :   251        0.94s   0.011%  ------ ++
++ sparse_init                          :     1        1.06s   0.012%  ------ ++
++ restart_kernel_write                 :    15        1.18s   0.013%  ------ ++
++ paw_species_calc_proj_prec_mat       :     1        1.28s   0.015%  ------ ++
++ main_program_(onetep.F90)            :     1        2.07s   0.023%  ------ ++
++ hamiltonian_energy_components        :     3        2.09s   0.024%  ------ ++
++ augmentation_screen_dij              :   185        2.27s   0.026%  ------ ++
++ integrals_locpot_dbl_grid            :   157        2.83s   0.032%  ------ ++
++ sw_init                              :     1        5.01s   0.057%  ------ ++
++ augmentation_density_on_grid         :   180        6.19s   0.070%  ------ ++
++ basis_copy_function_to_box           :  7952        8.15s   0.093%  ------ ++
++ paw_dij_xc                           :   265        8.37s   0.095%  ------ ++
++ fourier_apply_box_pair               :   997       14.49s   0.165%  1.819k ++
++ projectors_init_fftbox_recip         :    86       21.96s   0.249%  ------ ++
++ sparse_trace                         :  7930       25.11s   0.285%  ------ ++
++ projectors_func_ovlp_box             :    29       30.85s   0.350%  ------ ++
++ basis_dot_function_with_box          : 2.240M      43.08s   0.489%  ------ ++ (!) overhead: ~   5.6%
++ edft_calculate                       :    14       45.12s   0.513%  ------ ++
++ eigenstates_calculate                :     1       48.49s   0.551%  ------ ++
++ integrals_kinetic                    :    28       55.10s   0.626%  ------ ++
++ eigenstates_pdos                     :     1       57.39s   0.652%  ------ ++
++ xc_energy_potential                  :   179       69.84s   0.793%  ------ ++
++ ngwf_gradient_build_batch            :    28       70.89s   0.805%  ------ ++
++ hamiltonian_lhxc_calculate           :   175       96.03s   1.091%  ------ ++
++ ngwf_gradient_batch                  :    28      104.58s   1.188%  ------ ++
++ function_ops_brappd_ketppd           :    58      108.70s   1.235%  ------ ++
++ density_on_dbl_grid                  :   180      125.61s   1.427%  ------ ++
++ ngwf_cg_optimise                     :     1      138.24s   1.570%  ------ ++
++ dense_eigensolve                     :   294      146.29s   1.662%  ------ ++
++ basis_add_function_to_box            : 5.654M     155.70s   1.769%  ------ ++ (!) overhead: ~   3.9%
++ fourier_apply_cell_forward           :  6624      164.46s   1.868% 140.185 ++
++ restart_ngwfs_tightbox_output        :    13      188.19s   2.138%  ------ ++
++ density_fftbox_interpolate_multiply  :  6120      203.74s   2.315%  ------ ++
++ sparse_product                       : 11219      214.66s   2.439%  ------ ++
++ edft_apply_smearing_operator         :   146      236.12s   2.683%  ------ ++
++ cell_grid_deposit_box_real           : 13413      243.35s   2.765%  ------ ++
++ fourier_apply_cell_backward          :  7341      244.46s   2.777% 104.521 ++
++ density_fftbox_deposit_to_cell       :  6120      256.69s   2.916%  ------ ++
++ density_batch_interp_deposit         :   360      261.21s   2.968%  ------ ++
++ density_batch_row_sums               :   360      302.24s   3.434%  ------ ++
++ edft_diag_ngwf_ham                   :   292      305.66s   3.473%  ------ ++
++ integrals_locpot_mat_els_batch       :   314      374.98s   4.260%  ------ ++
++ cell_grid_extract_box_real           :  5172      384.43s   4.367%  ------ ++
++ projectors_gradient_batch            :    28      440.32s   5.002%  ------ ++
++ potential_apply_to_ngwf_batch        :   314      465.11s   5.284%  ------ ++
++ properties_calculate                 :     1      526.77s   5.984%  ------ ++
++ fourier_apply_box                    : 26587      552.92s   6.282%  4.119k ++
++ ngwf_gradient_lnv                    :    14      808.14s   9.181%  ------ ++
++ projectors_grad_precond_batch        :    28     1154.42s  13.115%  ------ ++
================================================================================
(!) WARNING: You're wasting precious cycles calling timer. 
             Each pair of timer_clock calls itself cost   1.07 microseconds!
Overhead of generating timer report: 
- 0 ms averaging over threads,
- 19 ms ensuring consistency across MPI ranks,
- 0 ms printing in order.

Job completed: 14-12-2021 05:06 (-0000)

