 +---------------------------------------------------------------+
 |                                                               |
 |        ####### #     # ####### ####### ####### ######         |
 |        #     # ##    # #          #    #       #     #        |
 |        #     # # #   # #          #    #       #     #        |
 |        #     # #  #  # #####      #    #####   ######         |
 |        #     # #   # # #          #    #       #              |
 |        #     # #    ## #          #    #       #              |
 |        ####### #     # #######    #    ####### #              |
 |                                                               |
 |        Linear-Scaling Ab Initio Total Energy Program          |
 |                                                               |
 |          Release for academic collaborators of ODG            |
 |                                             Version 6.1.3.6   |
 |                                                               |
 +---------------------------------------------------------------+
 |                                                               |
 |  Authors:                                                     |
 |  Jacek Dziedzic, Peter D. Haynes, Nicholas D. M. Hine,        |
 |  Arash A. Mostofi, Mike C. Payne and Chris-Kriton Skylaris    |
 |                                                               |
 |  Contributors:                                                |
 |  J. Aarons, L. Andrinopoulos, P. W. Avraam, R. A. Bell,       |
 |  A. Bhandari, G. A. Bramley, R. J. Charlton, S. J. Clark,     |
 |  R. J. Clements, G. C. Constantinescu, F. Corsetti,           |
 |  N. Corsini, O. Dieguez, S. M. M. Dubois, K. K. B. Duff,      |
 |  J. M. Escartin, A. Greco, H. Helal, Q. O. Hill, L. P. Lee,   |
 |  J.-H. Li, E. B. Linscott, G. Moynihan, D. D. O`Regan,        |
 |  O. K. Okan, M. J. S. Phipps, C. J. Pickard,                  |
 |  J. C. A. Prentice, M. I. J. Probert, L. E. Ratcliff,         |
 |  M. Robinson, A. Ruiz Serrano, J. S. Spencer, E. W. Tait,     |
 |  G. Teobaldi, D. Turban, V. Vitale, K. A. Wilkinson,          |
 |  C. Weber, J. C. Womack, N. Yeung and T. J. Zuehlsdorff       |
 |                                                               |
 |                                   Copyright (c) 2004-2021     |
 |                                                               |
 |  Please cite:                                                 |
 |  "The ONETEP linear-scaling density functional theory program"|
 |   J. Chem. Phys. 152(17) 174111 (2020)                        |
 |                                                               |
 |          in all publications arising from your use of ONETEP. |
 |                                                               |
 +---------------------------------------------------------------+
 |                                                               |
 |   ONETEP is based on developments described in the following  |
 |   publications:                                               |
 |                                                               |
 |  "Nonorthogonal generalized Wannier function pseudopotential  |
 |   plane-wave method".                                         |
 |   C.-K. Skylaris, A. A. Mostofi, P. D. Haynes, O. Dieguez,    |
 |   M. C. Payne.                                                |
 |   Phys. Rev. B 66 035119 (2002).                              |
 |                                                               |
 |  "Preconditioned iterative minimization for linear-scaling    |
 |   electronic structure calculations".                         |
 |   A. A. Mostofi, P. D. Haynes, C.-K. Skylaris, M. C. Payne.   |
 |   J. Chem. Phys. 119(17), pp.8842-8848 (2003).                |
 |                                                               |
 |  "Total-energy calculations on a real space grid with         |
 |   localized functions and a plane-wave basis".                |
 |   A. A. Mostofi, C.-K. Skylaris, P. D. Haynes, M. C. Payne.   |
 |   Comput. Phys. Commun. 147, pp.788-802 (2002).               |
 |                                                               |
 |  "Accurate kinetic energy evaluation in electronic structure  |
 |   calculations with localized functions on real space grids"  |
 |   C.-K. Skylaris, A. A. Mostofi, P. D. Haynes, C. J. Pickard, |
 |   M. C. Payne.                                                |
 |   Comput. Phys. Commun. 140, pp.315-322 (2001).               |
 |                                                               |
 |  "Accurate ionic forces and geometry optimization in linear-  |
 |   scaling density-functional theory with local orbitals"      |
 |   N. D. M. Hine, M. Robinson, P. D. Haynes, C.-K. Skylaris,   |
 |   M. C. Payne, and A. A. Mostofi.                             |
 |   Phys. Rev. B 83 195102 (2011).                              |
 |                                                               |
 +---------------------------------------------------------------+

Job started: 06-09-2021 11:04 (+0100)
 
Reading parameters from file "592nano.dat" ...... done

If your calculation crashes here, before "Checking processes and threads..."
is displayed, then your stack size is insufficient.
If so, use "ulimit -s unlimited" at runtime.
You can disable this check with "check_stack_size F".

Checking processes and threads...
   Determining the default number of threads...
      No default threads set at compilation time: defaulting to 1.
      OpenMP library call suggests 4 threads.
      Hybrid MPI-OpenMP compilation detected.
      Number of MPI processes > 1.
      OMP_NUM_THREADS environment variable present and
      its value matches the one obtained from the OpenMP library call.
      Using this value as default.
      Default threads: 4
      Default applies to threads_max and threads_num_fftboxes.
      Settings in the input file override this default.
   ... done

   Running with 160 MPI processes.
   There are 10 MPI processes running on the same node as the root process.
   Each MPI process is using: 
               1 threads for simulation cell FFTs.
               1 threads for parallel FFT box operations.
               4 threads for loops over batched FFT box operations.
               4 threads in other parallel regions.
... done

Basic input checks...
Resetting ngwf_cg_rotate to TRUE for EDFT calculations
... done

Reading geometry and species blocks from file "592nano.dat" ...    
  Number of PPD points along a3 set to 1.  This is 
  the default value, it may have been provided also in the input file.
... done
 Writing xyz coordinates to file "592nano.xyz" ... done


--------------------------------------------------------------------------------
---------------------------------- INPUT FILE ----------------------------------
--------------------------------------------------------------------------------

task : singlepoint                                                              
geom_lbfgs T                                                                    
do_properties : true                                                            
dx_format T                                                                     
edft T                                                                          
edft_spin_fix 3                                                                 
output_detail VERBOSE                                                           
timings_level 3                                                                 
write_xyz T                                                                     
edft_update_scheme: pulay_mix                                                   
edft_ham_diis_size: 10                                                          
edft_trial_step: 0.382                                                          
xc_functional OPTPBE                                                            
cutoff_energy 830 eV                                                            
paw T                                                                           
geom_precond_type EXP                                                           
geom_disp_tol 0.06 bohr                                                         
geom_energy_tol 6E-6 hartree                                                    
geom_force_tol 0.012 "ha/bohr"                                                  
read_denskern T                                                                 
read_tightbox_ngwfs T                                                           
EDFT_MAXIT 30                                                                   
pdos_max_l = 2                                                                  
dos_smear  0.1 eV                                                               
popn_calculate T                                                                
PDOS_PSEUDOATOMIC T                                                             
PDOS_REDUCE_SWS F                                                               
PDOS_CONSTRUCT_BASIS F                                                          
PDOS_LOWDIN T                                                                   
PDOS_ORTH_ATOM_BLOCKS F                                                         
PDOS_LCAO_OPTIMIZE F                                                            
pdos_optados_output T                                                           
homo_plot 0                                                                     
lumo_plot 0                                                                     
homo_dens_plot -1                                                               
lumo_dens_plot -1                                                               
%BLOCK SPECIES                                                                  
C C 6 4 9.0                                                                     
H H 1 1 9.0                                                                     
Li Li 3 5 9.0                                                                   
%ENDBLOCK SPECIES                                                               
%BLOCK SPECIES_POT                                                              
C "~/pp/paw/c_pbe_abinit.paw"                                                   
H "~/pp/paw/h_pbe_abinit.paw"                                                   
Li "~/pp/paw/li_pbe_abinit.paw"                                                 
%ENDBLOCK SPECIES_POT                                                           
%BLOCK SPECIES_ATOMIC_SET                                                       
C "SOLVE conf=2s2 2p2"                                                          
H "SOLVE conf=1s1"                                                              
Li "SOLVE conf=1s2 2s1 2p0"                                                     
%ENDBLOCK SPECIES_ATOMIC_SET                                                    
%BLOCK SPECIES_LDOS_GROUPS                                                      
C                                                                               
H                                                                               
Li                                                                              
%ENDBLOCK SPECIES_LDOS_GROUPS                                                   
%BLOCK LATTICE_CART                                                             
94.486315650000      0.000000000000       0.000000000000                        
0.000000000000       94.486315650000      0.000000000000                        
0.000000000000       0.000000000000       94.486315650000                       
%ENDBLOCK LATTICE_CART                                                          
%BLOCK POSITIONS_ABS                                                            
C 42.932402 41.301168 31.885480                                                 
C 38.857415 43.578443 31.803845                                                 
C 41.617737 38.943845 31.791563                                                 
C 45.620216 41.339764 31.939665                                                 
C 37.547728 41.221668 31.664540                                                 
C 37.474995 45.887273 31.829774                                                 
C 54.937268 48.483735 31.957199                                                 
C 54.866117 53.150208 32.013172                                                 
C 53.627855 46.132754 31.940707                                                 
C 38.640030 57.555481 31.917253                                                 
C 42.640902 59.951081 31.975324                                                 
C 37.330818 55.207551 31.917675                                                 
C 53.484633 55.459364 32.032002                                                 
C 45.329670 59.994026 32.009640                                                 
C 47.007671 39.021555 31.902367                                                 
C 41.548922 43.614995 31.903604                                                 
C 34.776567 45.848960 31.724054                                                 
C 51.010986 41.416083 31.903934                                                 
C 53.556950 50.796853 32.044203                                                 
C 34.700706 50.506306 31.863808                                                 
C 41.330993 57.600442 32.003258                                                 
C 38.931140 38.909876 31.664525                                                 
C 55.011213 43.815327 31.806893                                                 
C 49.624238 43.735085 31.980618                                                 
C 37.400934 50.548022 31.936630                                                 
C 49.406932 57.728160 32.065181                                                 
C 34.633252 55.163316 31.823493                                                 
C 57.635807 48.527976 31.852817                                                 
C 50.718887 60.084610 31.969367                                                 
C 57.564926 53.190151 31.917324                                                 
C 37.256920 59.868480 31.805391                                                 
C 54.794804 57.815528 31.924602                                                 
C 50.790377 55.420002 32.086669                                                 
C 46.716082 57.686410 32.072712                                                 
C 41.252807 62.263016 31.873210                                                 
C 46.642114 62.349443 31.911463                                                 
C 46.933739 43.692901 31.990251                                                 
C 50.934600 46.087374 32.006357                                                 
C 38.782535 48.239389 31.932679                                                 
C 38.710499 52.896938 31.977057                                                 
C 49.696759 39.065663 31.891237                                                 
C 33.395476 48.155686 31.776003                                                 
C 43.006532 36.631745 31.780260                                                 
C 53.701618 41.464636 31.808505                                                 
C 34.857022 41.191515 31.504009                                                 
C 33.324422 52.816162 31.831566                                                 
C 45.686523 36.670455 31.846266                                                 
C 33.477893 43.493555 31.549434                                                 
C 58.943585 50.878991 31.845992                                                 
C 53.409935 60.120439 31.897282                                                 
C 49.329959 62.388320 31.891365                                                 
C 38.565835 62.216600 31.788155                                                 
C 50.863754 50.754650 32.086890                                                 
C 42.713632 55.291529 32.057533                                                 
C 42.858631 45.966694 31.982844                                                 
C 57.704556 43.870104 31.659821                                                 
C 59.010867 46.213300 31.685989                                                 
C 33.261480 57.477827 31.697163                                                 
C 34.565826 59.817178 31.668190                                                 
C 58.868962 55.545914 31.810126                                                 
C 49.480914 53.066369 32.114366                                                 
C 45.405612 55.333959 32.097642                                                 
C 57.490263 57.845360 31.804175                                                 
C 49.552834 48.401770 32.069229                                                 
C 41.403891 52.939722 32.041228                                                 
C 42.566944 64.612019 31.784291                                                 
C 41.476111 48.278889 31.999167                                                 
C 45.550577 46.007128 32.025255                                                 
C 45.247539 64.652486 31.791552                                                 
C 37.611768 36.533654 31.535229                                                 
C 46.788387 53.023807 32.109562                                                 
C 42.786307 50.629989 32.050539                                                 
C 46.860768 48.359951 32.067706                                                 
C 41.666846 34.260238 31.689677                                                 
C 33.554334 38.806863 31.331016                                                 
C 51.100598 36.730220 31.829021                                                 
C 55.096493 39.125204 31.687660                                                 
C 30.671879 48.117857 31.704572                                                 
C 47.102140 34.341150 31.815536                                                 
C 30.600971 52.769250 31.766282                                                 
C 30.756599 43.471231 31.427256                                                 
C 45.478549 50.671637 32.088269                                                 
C 61.662364 50.920617 31.722508                                                 
C 39.030807 34.260068 31.573355                                                 
C 34.938890 36.553665 31.360889                                                 
C 37.169110 64.544899 31.659347                                                 
C 59.084162 41.526688 31.470381                                                 
C 54.728049 62.498217 31.745119                                                 
C 50.656353 64.761359 31.740906                                                 
C 61.731167 46.276342 31.543189                                                 
C 30.539365 57.415982 31.594393                                                 
C 61.590787 55.567488 31.682593                                                 
C 33.186717 62.158941 31.521376                                                 
C 41.150828 66.933540 31.655792                                                 
C 58.796682 60.228914 31.637346                                                 
C 46.584532 67.018229 31.629490                                                 
C 49.732438 34.412216 31.835134                                                 
C 29.425152 45.741292 31.552074                                                 
C 62.986883 48.596839 31.589867                                                 
C 53.762008 36.820071 31.748007                                                 
C 62.917201 53.286379 31.669875                                                 
C 57.780401 39.237774 31.516481                                                 
C 29.344061 50.424303 31.754992                                                 
C 43.126787 31.958854 31.701049                                                 
C 34.495939 64.445735 31.532776                                                 
C 38.515996 66.856982 31.620311                                                 
C 29.281481 55.108597 31.677556                                                 
C 30.836357 38.838393 31.161428                                                 
C 45.706000 31.996348 31.766594                                                 
C 29.504390 41.059535 31.215727                                                 
C 57.415808 62.471301 31.629276                                                 
C 53.318712 64.754078 31.697934                                                 
C 49.217635 67.027379 31.627796                                                 
H 38.014289 32.439325 31.504365                                                 
H 33.926455 34.733811 31.256891                                                 
C 63.063599 43.908666 31.331625                                                 
C 61.802210 41.651132 31.292094                                                 
C 62.852857 57.975379 31.529926                                                 
C 29.210150 59.788972 31.432468                                                 
C 30.467919 62.044436 31.386475                                                 
C 61.519205 60.193738 31.497407                                                 
C 42.533188 69.275097 31.519802                                                 
C 45.120180 69.311516 31.497635                                                 
H 65.001586 53.317179 31.575744                                                 
H 65.071151 48.631561 31.488799                                                 
H 50.805803 32.623849 31.836628                                                 
H 42.096405 30.146533 31.666302                                                 
H 29.840198 37.015768 31.014500                                                 
H 27.340670 45.703137 31.507324                                                 
H 37.442365 68.643927 31.523171                                                 
H 33.428286 66.235376 31.434135                                                 
H 58.849002 37.448874 31.419452                                                 
H 27.196605 55.076450 31.646651                                                 
H 46.791601 30.217805 31.788031                                                 
H 54.833772 35.031403 31.710107                                                 
H 27.425089 41.041633 31.116742                                                 
H 27.259173 50.388927 31.737088                                                 
H 58.426778 64.289479 31.518822                                                 
H 50.231907 68.846759 31.522934                                                 
H 65.142887 43.956654 31.207775                                                 
H 62.854150 39.860346 31.144959                                                 
H 54.330454 66.572356 31.602235                                                 
H 64.932622 57.993862 31.428056                                                 
H 29.413727 63.836572 31.266742                                                 
H 27.130316 59.741096 31.357251                                                 
H 41.454435 71.051687 31.418823                                                 
H 62.516555 62.015062 31.375256                                                 
H 46.144030 71.120336 31.384147                                                 
C 44.306274 38.918115 37.713621                                                 
C 36.167887 43.462230 37.532183                                                 
C 40.235683 41.189496 37.647019                                                 
C 41.621062 38.876816 37.647741                                                 
C 49.697511 39.003112 37.765161                                                 
C 37.550485 41.156548 37.522709                                                 
C 48.310148 41.320085 37.777443                                                 
C 53.691289 41.397207 37.679178                                                 
C 45.618795 41.278794 37.758033                                                 
C 52.314211 43.716160 37.758804                                                 
C 36.081016 48.126105 37.730869                                                 
C 37.469184 45.820544 37.685481                                                 
C 45.702816 36.610497 37.716420                                                 
C 35.998785 52.787163 37.782210                                                 
C 33.384812 48.080635 37.703155                                                 
C 53.624044 46.069780 37.769266                                                 
C 52.390698 39.045856 37.726000                                                 
C 33.299341 52.733453 37.764618                                                 
C 56.323478 46.121511 37.672809                                                 
C 33.473307 43.433087 37.350871                                                 
C 49.619106 43.674038 37.798756                                                 
C 37.307070 55.139693 37.781375                                                 
C 48.384129 36.649594 37.756038                                                 
C 41.543930 43.550424 37.726063                                                 
C 37.385892 50.481129 37.792652                                                 
C 35.923624 57.453877 37.668387                                                 
C 56.389534 41.448109 37.481920                                                 
C 56.255257 50.777719 37.829459                                                 
C 53.553457 50.734122 37.872462                                                 
C 53.472820 55.399571 37.881941                                                 
C 31.995651 50.381023 37.768721                                                 
C 45.308760 59.937332 37.880916                                                 
C 41.309790 57.539694 37.863625                                                 
C 57.696267 43.804039 37.447120                                                 
C 32.083464 45.722491 37.529998                                                 
C 52.086641 57.714733 37.892778                                                 
C 44.233811 43.591231 37.768220                                                 
C 48.005547 59.981747 37.894578                                                 
C 40.159679 45.860785 37.747681                                                 
C 39.920314 59.853973 37.797725                                                 
C 49.391227 57.669962 37.928794                                                 
C 52.242449 48.381929 37.848940                                                 
C 57.635676 48.464137 37.729519                                                 
C 39.999915 55.188610 37.841040                                                 
C 56.172913 55.435668 37.792755                                                 
C 52.167761 53.046509 37.909976                                                 
C 44.003504 57.584919 37.899786                                                 
C 40.284977 36.499936 37.570948                                                 
C 31.913897 55.041237 37.666124                                                 
C 43.912227 62.247734 37.810384                                                 
C 36.229339 38.777183 37.370530                                                 
C 33.220846 57.379983 37.515248                                                 
C 37.229193 59.802007 37.694130                                                 
C 57.560131 53.132602 37.796364                                                 
C 41.225155 62.207875 37.803964                                                 
C 48.235234 45.987495 37.827128                                                 
C 40.079653 50.525891 37.817941                                                 
C 48.084262 55.314942 37.928910                                                 
C 44.367017 34.240288 37.672415                                                 
C 53.789836 36.708157 37.688493                                                 
C 53.387246 60.073565 37.810222                                                 
C 49.544824 48.339644 37.861048                                                 
C 49.319884 62.333360 37.817832                                                 
C 41.387291 52.877958 37.850454                                                 
C 45.390807 55.272035 37.908796                                                 
C 49.469272 53.003590 37.917867                                                 
C 45.542258 45.946047 37.812014                                                 
C 41.466022 48.216743 37.806944                                                 
C 32.181045 41.036694 37.027286                                                 
C 37.637975 36.508816 37.450977                                                 
C 49.799861 34.323627 37.763308                                                 
C 41.731070 34.236192 37.607922                                                 
C 57.471926 57.796917 37.612530                                                 
C 57.768885 39.088780 37.345530                                                 
C 33.559564 38.781492 37.116955                                                 
C 45.227796 64.599376 37.648792                                                 
C 44.080467 52.920749 37.880739                                                 
C 48.159938 50.651852 37.887519                                                 
C 29.273026 50.326482 37.780038                                                 
C 44.157370 48.257887 37.831277                                                 
C 60.365497 48.516320 37.646630                                                 
C 52.010292 62.385008 37.797636                                                 
C 45.465980 50.610676 37.870709                                                 
C 60.432654 43.879083 37.268317                                                 
C 29.360533 45.691227 37.522118                                                 
C 56.088019 60.112208 37.640611                                                 
C 56.461526 36.796391 37.521651                                                 
C 29.193909 54.967235 37.681861                                                 
C 47.923404 64.644952 37.656073                                                 
C 60.290663 53.169513 37.729148                                                 
C 52.441102 34.397777 37.751372                                                 
C 35.828685 62.143257 37.565294                                                 
C 31.835927 59.712310 37.217298                                                 
C 39.806622 64.540933 37.739305                                                 
C 45.834439 31.943046 37.685299                                                 
C 27.942442 52.641769 37.790373                                                 
C 61.692002 46.196983 37.428804                                                 
C 28.023984 47.957253 37.706385                                                 
C 61.618162 50.861649 37.702298                                                 
C 48.416935 31.978163 37.736997                                                 
C 29.445689 41.068297 36.982316                                                 
C 33.149329 62.023187 37.297949                                                 
C 60.490385 39.218556 37.088612                                                 
C 37.146954 64.444823 37.657888                                                 
C 60.210732 57.813206 37.489087                                                 
H 36.637685 34.685379 37.348376                                                 
H 40.725039 32.411455 37.563902                                                 
C 61.755516 41.496958 37.024741                                                 
C 43.792001 66.927909 37.521095                                                 
H 32.553306 36.960851 36.950792                                                 
C 61.542534 55.530945 37.613235                                                 
C 28.114839 43.279620 37.293080                                                 
C 41.148357 66.851185 37.637645                                                 
H 57.529776 35.006114 37.446681                                                 
C 27.857670 57.326756 37.522894                                                 
C 29.106206 59.580864 37.259799                                                 
H 53.514314 32.608400 37.729853                                                 
C 53.332922 64.769172 37.678485                                                 
H 44.797658 30.136327 37.646851                                                 
H 25.857265 52.602571 37.798339                                                 
C 57.391832 62.514015 37.514660                                                 
C 49.271256 67.017075 37.493727                                                 
H 63.774619 46.232273 37.325024                                                 
H 28.441849 39.258446 36.754672                                                 
H 25.938187 47.913316 37.708871                                                 
H 63.703139 50.895556 37.627600                                                 
H 49.507379 30.197491 37.741662                                                 
H 61.546441 37.429272 36.948635                                                 
H 32.078759 63.802678 37.112478                                                 
H 36.077866 66.234989 37.578893                                                 
H 63.829616 41.542906 36.867392                                                 
H 63.627245 55.565531 37.548769                                                 
H 26.033026 43.241150 37.301484                                                 
H 25.772080 57.279329 37.554227                                                 
C 61.460362 60.234827 37.318075                                                 
H 40.083458 68.640500 37.568125                                                 
C 45.186350 69.264329 37.309598                                                 
H 28.043453 61.364564 37.073449                                                 
C 51.918420 67.031153 37.567512                                                 
C 56.004884 64.767702 37.592095                                                 
C 60.120135 62.475131 37.347518                                                 
C 47.795725 69.307425 37.300517                                                 
H 63.538287 60.254737 37.207218                                                 
H 44.109151 71.041458 37.189515                                                 
H 52.926359 68.851725 37.431087                                                 
H 57.017399 66.583729 37.465842                                                 
H 61.122945 64.295024 37.218136                                                 
H 48.814697 71.119210 37.142686                                                 
H 29.336458 37.296810 44.314016                                                 
H 41.382038 30.082339 43.372866                                                 
H 33.353384 34.881795 43.773565                                                 
H 37.368749 32.485107 43.438190                                                 
H 46.077795 30.014152 43.457061                                                 
H 27.051250 41.407899 44.441391                                                 
C 42.464298 31.862631 43.400981                                                 
C 30.392044 39.087228 44.184549                                                 
H 62.420835 39.128620 44.469358                                                 
C 34.420791 36.672487 43.713737                                                 
C 38.439683 34.276439 43.437823                                                 
C 45.045833 31.821581 43.449181                                                 
H 50.147636 32.284530 43.596429                                                 
H 64.837360 43.130437 43.973491                                                 
C 29.123395 41.366443 44.268242                                                 
H 65.077763 57.203332 43.972718                                                 
H 27.099161 46.099047 44.054004                                                 
H 27.323492 60.110309 44.404576                                                 
H 54.227682 34.549067 43.859397                                                 
H 58.302696 36.827637 44.268554                                                 
H 29.741403 64.152176 44.535251                                                 
H 27.167849 50.764655 43.844286                                                 
H 65.005587 52.526728 43.644989                                                 
H 42.038294 71.006022 44.377257                                                 
H 62.806912 61.266499 44.586463                                                 
H 27.242222 55.434486 43.995404                                                 
H 64.932053 47.817786 43.641334                                                 
C 33.111321 38.964640 43.924863                                                 
C 41.078742 34.202726 43.414636                                                 
H 46.699768 70.908989 44.812184                                                 
C 37.089988 36.585538 43.536902                                                 
H 37.943875 68.718155 44.142421                                                 
C 61.422468 40.947623 44.282060                                                 
C 62.752343 43.160997 43.996248                                                 
H 33.845557 66.455646 44.230815                                                 
C 49.126244 34.106996 43.572094                                                 
C 62.997197 57.230311 44.063444                                                 
C 29.181063 46.070588 43.949331                                                 
H 58.762943 63.695053 44.649525                                                 
C 29.403933 60.097021 44.317195                                                 
C 46.501504 34.121911 43.502199                                                 
H 50.744372 68.498912 44.624799                                                 
H 54.757417 66.114727 44.367324                                                 
C 30.441957 43.751022 44.055562                                                 
C 30.745069 62.334405 44.381748                                                 
C 53.212309 36.367601 43.771721                                                 
C 61.746037 59.485829 44.395211                                                 
C 57.292799 38.645624 44.133963                                                 
C 43.049746 69.182688 44.349788                                                 
C 29.251344 50.735628 43.779614                                                 
C 62.920350 52.547513 43.699339                                                 
C 29.324929 55.401679 43.936516                                                 
C 62.841785 47.856167 43.674071                                                 
C 45.636593 69.132554 44.597991                                                 
C 50.553847 36.379802 43.640382                                                 
C 58.682268 40.902062 44.247132                                                 
C 38.970304 66.904837 44.051421                                                 
C 54.620684 38.626040 43.876370                                                 
C 30.505457 48.391488 43.786746                                                 
C 61.509886 45.584052 43.822518                                                 
C 34.865216 64.640290 44.124748                                                 
C 42.486430 36.533590 43.452780                                                 
C 61.666780 54.870049 43.876996                                                 
C 34.485337 41.328643 43.816403                                                 
C 30.653632 57.679404 44.097671                                                 
C 45.392367 50.498509 43.592793                                                 
C 30.576650 53.040398 43.795408                                                 
C 38.482907 38.929080 43.528719                                                 
C 61.587648 50.229328 43.671018                                                 
C 46.775312 52.809135 43.634483                                                 
C 57.698994 61.917769 44.421055                                                 
C 42.700356 50.540353 43.582967                                                 
C 46.703523 48.146478 43.576754                                                 
C 45.164683 36.492924 43.490241                                                 
C 33.477874 62.387141 44.224591                                                 
C 49.677253 66.717277 44.424047                                                 
C 41.602365 66.890352 44.143058                                                 
C 33.176579 43.683042 43.884109                                                 
C 53.693310 64.334506 44.190872                                                 
C 59.015865 59.602867 44.467356                                                 
C 45.466679 55.161462 43.664292                                                 
C 49.469641 52.764233 43.666476                                                 
C 41.319295 48.227628 43.561438                                                 
C 45.321096 45.834217 43.549821                                                 
C 37.536190 64.648781 44.001239                                                 
C 41.391505 52.892371 43.611571                                                 
C 49.396066 48.103157 43.595997                                                 
C 47.029965 66.780342 44.524307                                                 
C 41.172289 38.886785 43.482073                                                 
C 37.180783 41.281488 43.614841                                                 
C 42.629692 45.874888 43.542000                                                 
C 42.773800 55.204330 43.649371                                                 
C 50.781977 50.410393 43.639593                                                 
C 49.238962 38.765570 43.593857                                                 
C 55.016295 62.035055 44.191295                                                 
C 33.234136 48.344852 43.707179                                                 
C 53.318887 41.021197 43.760156                                                 
C 57.393327 43.307897 43.968201                                                 
C 51.025650 64.418796 44.175802                                                 
C 58.787107 45.604381 43.825301                                                 
C 46.555416 38.805768 43.529841                                                 
C 46.630513 43.477782 43.549257                                                 
C 38.624222 48.268932 43.580991                                                 
C 34.547764 46.003420 43.708841                                                 
C 33.304826 53.008712 43.737254                                                 
C 50.702949 45.745509 43.604077                                                 
C 38.695472 52.932073 43.629028                                                 
C 50.850572 55.076087 43.749338                                                 
C 41.248452 43.560519 43.527932                                                 
C 50.630421 41.072418 43.636061                                                 
C 46.854437 57.470919 43.745157                                                 
C 33.389731 57.668371 44.009706                                                 
C 58.940980 54.931585 43.920673                                                 
C 42.556339 41.206105 43.505107                                                 
C 38.555653 43.602245 43.572834                                                 
C 49.321262 43.435551 43.589948                                                 
C 45.245404 41.166331 43.522905                                                 
C 58.865206 50.279703 43.696708                                                 
C 37.312810 50.619558 43.615139                                                 
C 34.775241 59.982244 44.058353                                                 
C 37.245890 45.955542 43.611221                                                 
C 34.612403 50.658144 43.660514                                                 
C 54.697835 43.330749 43.785101                                                 
C 53.476991 50.359411 43.667232                                                 
C 49.548214 57.429815 43.794960                                                 
C 42.934056 64.517593 44.056355                                                 
C 41.463095 57.555212 43.707708                                                 
C 57.635289 57.271797 44.126815                                                 
C 34.688970 55.311331 43.790876                                                 
C 53.396290 45.695104 43.669777                                                 
C 57.484493 47.970991 43.703823                                                 
C 38.847868 62.264034 43.896348                                                 
C 37.387179 55.282174 43.711046                                                 
C 57.550768 52.638139 43.777483                                                 
C 54.793319 47.998261 43.661984                                                 
C 45.612449 64.462875 44.193406                                                 
C 53.545252 55.032656 43.808535                                                 
C 54.850407 52.675094 43.743486                                                 
C 38.770052 57.596832 43.746870                                                 
C 45.542843 59.816253 43.822336                                                 
C 37.470864 59.953955 43.875155                                                 
C 53.630518 59.694268 44.012806                                                 
C 42.850224 59.862588 43.791135                                                 
C 49.624913 62.085279 44.008911                                                 
C 41.536229 62.216133 43.876819                                                 
C 50.934649 59.740849 43.905114                                                 
C 54.931710 57.342240 43.979350                                                 
C 46.937392 62.120967 43.989249                                                 
H 44.137286 30.020647 49.345995                                                 
H 28.053722 39.594968 50.146389                                                 
H 48.829421 29.964393 49.466355                                                 
H 61.063861 36.864055 50.217049                                                 
H 63.466496 40.899696 50.152767                                                 
H 25.751867 43.684838 50.150166                                                 
H 28.316720 61.764899 50.269137                                                 
H 25.916810 57.724510 50.162046                                                 
H 36.087471 34.804987 49.503587                                                 
H 40.119345 32.410766 49.335073                                                 
H 32.067376 37.205553 49.838245                                                 
H 63.594856 50.268565 49.671707                                                 
H 36.468795 66.357682 50.055725                                                 
H 63.708876 59.626753 50.220888                                                 
H 44.630074 70.924204 50.479656                                                 
H 63.532410 45.571822 49.821332                                                 
H 32.389560 64.056620 50.146471                                                 
H 52.902499 32.269898 49.666428                                                 
H 56.983964 34.572815 49.949699                                                 
H 63.652791 54.961390 49.847702                                                 
H 61.404484 63.706926 50.444654                                                 
H 40.558246 68.643585 50.179960                                                 
H 49.320018 70.864371 50.602178                                                 
H 25.864491 53.051786 49.951187                                                 
H 25.806010 48.364854 49.955234                                                 
C 45.212767 31.803348 49.387152                                                 
C 47.793903 31.773077 49.452493                                                 
C 29.100214 41.391853 50.031729                                                 
C 60.062933 38.685631 50.088774                                                 
C 27.831263 43.647619 50.030074                                                 
C 61.384566 40.907335 50.055855                                                 
C 28.000064 57.724074 50.072556                                                 
C 29.319100 59.941352 50.135576                                                 
H 57.371525 66.082503 50.438812                                                 
H 53.336890 68.473029 50.486329                                                 
C 41.181077 34.205818 49.356418                                                 
C 37.150602 36.598816 49.490468                                                 
C 33.129988 38.998958 49.768489                                                 
C 61.626963 59.662436 50.184844                                                 
C 45.662613 69.117646 50.389944                                                 
C 60.358081 61.912377 50.302675                                                 
C 51.878171 34.086355 49.616153                                                 
C 48.247333 69.084149 50.451908                                                 
C 55.965425 36.391158 49.862761                                                 
C 61.446381 45.597634 49.783814                                                 
C 61.510137 50.292197 49.672793                                                 
C 33.408793 62.241147 50.036052                                                 
C 37.490492 64.541379 49.974013                                                 
C 27.890011 48.341820 49.861004                                                 
C 27.948234 53.033381 49.866769                                                 
C 61.567752 54.980960 49.847555                                                 
C 41.579152 66.826120 50.105511                                                 
C 43.811730 34.143798 49.368852                                                 
C 49.243812 34.082556 49.494339                                                 
C 31.816939 41.282480 49.854135                                                 
C 57.341726 38.644180 49.917464                                                 
C 29.153019 46.023376 49.865952                                                 
C 60.125219 43.320010 49.875194                                                 
C 29.265956 55.318117 49.895254                                                 
C 39.809389 36.518981 49.399850                                                 
C 32.042139 59.992666 50.013068                                                 
C 35.810107 38.899013 49.591610                                                 
C 53.292291 36.365867 49.683116                                                 
C 56.313548 64.292719 50.296947                                                 
C 52.278619 66.680689 50.340251                                                 
C 29.207354 50.672067 49.777384                                                 
C 45.380768 50.486416 49.381626                                                 
C 60.303546 57.286507 49.996486                                                 
C 60.193289 47.976604 49.682587                                                 
C 44.208433 66.821871 50.187116                                                 
C 36.094342 62.278901 49.925888                                                 
C 60.252191 52.638348 49.725828                                                 
C 40.149992 64.556016 49.960089                                                 
C 57.636096 62.013502 50.215000                                                 
C 49.639756 66.749008 50.300367                                                 
C 44.063188 52.833891 49.421026                                                 
C 48.072644 50.454170 49.413208                                                 
C 44.005114 48.170391 49.355120                                                 
C 53.635569 64.380475 50.212596                                                 
C 45.437731 55.148939 49.490030                                                 
C 49.447358 52.768836 49.481592                                                 
C 45.214958 36.481596 49.368163                                                 
C 41.371636 52.866363 49.425395                                                 
C 49.390333 48.105142 49.408375                                                 
C 47.894420 36.449463 49.432484                                                 
C 33.183938 43.634800 49.705607                                                 
C 41.313586 48.202037 49.366236                                                 
C 45.322343 45.821087 49.343528                                                 
C 31.871173 45.973754 49.725326                                                 
C 56.031188 41.026253 49.771472                                                 
C 57.402241 43.334069 49.758339                                                 
C 31.985493 55.309544 49.780169                                                 
C 33.354135 57.613598 49.823644                                                 
C 48.129076 55.116697 49.530478                                                 
C 39.996635 50.550361 49.406734                                                 
C 48.014379 45.788740 49.377847                                                 
C 51.963899 38.736788 49.580009                                                 
C 41.200124 38.863769 49.369138                                                 
C 37.191696 41.247306 49.505980                                                 
C 57.578730 57.335691 49.926044                                                 
C 31.923916 50.642753 49.661382                                                 
C 45.557789 64.460008 50.038446                                                 
C 57.469024 48.005056 49.622278                                                 
C 56.265365 59.669181 50.024661                                                 
C 37.420707 59.904896 49.765649                                                 
C 48.237129 64.425268 50.096001                                                 
C 57.527225 52.673619 49.680842                                                 
C 41.487172 62.186685 49.820635                                                 
C 40.055413 55.214796 49.507557                                                 
C 44.118992 57.496221 49.574545                                                 
C 52.141893 52.736675 49.546619                                                 
C 52.083854 48.073495 49.472818                                                 
C 39.939521 45.883510 49.386897                                                 
C 49.275236 38.766467 49.452213                                                 
C 43.945998 43.503463 49.339550                                                 
C 43.887643 38.829640 49.349362                                                 
C 35.874053 43.593080 49.554240                                                 
C 53.339405 41.050496 49.611315                                                 
C 33.236707 48.295640 49.607058                                                 
C 33.293983 52.958266 49.637260                                                 
C 39.879106 41.210761 49.400961                                                 
C 41.429234 57.527690 49.575358                                                 
C 56.096774 45.690283 49.626774                                                 
C 53.457840 50.388991 49.525920                                                 
C 41.256403 43.535350 49.360356                                                 
C 36.047402 57.594795 49.710196                                                 
C 52.250997 62.049459 50.017294                                                 
C 37.305169 50.581471 49.459309                                                 
C 56.158788 50.358331 49.595136                                                 
C 49.331316 43.438263 49.411421                                                 
C 40.109821 59.879111 49.703965                                                 
C 49.503104 57.428268 49.655868                                                 
C 56.212834 55.019169 49.753451                                                 
C 44.174224 62.156020 49.844045                                                 
C 45.266099 41.152982 49.345012                                                 
C 37.247960 45.917098 49.462819                                                 
C 37.363549 55.243499 49.566111                                                 
C 53.398171 45.720764 49.524573                                                 
C 47.954416 41.121338 49.393296                                                 
C 35.933061 48.263599 49.499909                                                 
C 52.023093 43.406802 49.507806                                                 
C 35.990871 52.929923 49.542273                                                 
C 45.495941 59.806673 49.707153                                                 
C 53.570637 59.708490 49.913850                                                 
C 49.562020 62.085493 49.941391                                                 
C 53.513983 55.051272 49.668223                                                 
C 48.183924 59.772327 49.757242                                                 
C 52.196242 57.394378 49.738390                                                 
Li 59.531947 41.514243 40.510254                                                
Li 31.967434 60.274520 40.993451                                                
Li 31.398813 41.369351 40.796301                                                
Li 46.468661 67.306170 40.743569                                                
Li 59.037868 60.201218 40.688634                                                
Li 54.741240 64.739640 40.993440                                                
%ENDBLOCK POSITIONS_ABS                                                         

--------------------------------------------------------------------------------
-------------------------------- END INPUT FILE --------------------------------
--------------------------------------------------------------------------------


 
<<<<<<<<<<<<<<<<<<<<<<<<<<<<<<<<< Full system >>>>>>>>>>>>>>>>>>>>>>>>>>>>>>>>>>
<<<<<<<<<<<<<<<<<<<<<<<<<<< PAW Dataset information >>>>>>>>>>>>>>>>>>>>>>>>>>>
File: ~/pp/paw/c_pbe_abinit.paw; rc = 1.25 bohr; shape type =  3; rshape = 1.25 bohr;
  Atomic number:  6;  ionic charge:  4.000000
    Partial Wave 1: l = 0
    Partial Wave 2: l = 0
    Partial Wave 3: l = 1
    Partial Wave 4: l = 1
  Core charge supplied for Nonlinear Core Corrections
File: ~/pp/paw/h_pbe_abinit.paw; rc = 0.90 bohr; shape type =  3; rshape = 0.90 bohr;
  Atomic number:  1;  ionic charge:  1.000000
    Partial Wave 1: l = 0
    Partial Wave 2: l = 0
File: ~/pp/paw/li_pbe_abinit.paw; rc = 1.42 bohr; shape type =  3; rshape = 1.42 bohr;
  Atomic number:  3;  ionic charge:  3.000000
    Partial Wave 1: l = 0
    Partial Wave 2: l = 0
    Partial Wave 3: l = 0
    Partial Wave 4: l = 1
    Partial Wave 5: l = 1
<<<<<<<<<<<<<<<<<<<<<<<<<<<<<<<<<<<<<<< >>>>>>>>>>>>>>>>>>>>>>>>>>>>>>>>>>>>>>>

-------------------------- Atom counting information ---------------------------
Symbol    Natoms    Nngwfs    Nprojs
  C        484      1936      3872
  H        108       108       216
  Li         6        30        54
.......   ......    ......    ......
Totals:    598      2074      4142
--------------------------------------------------------------------------------

=============================== PSINC grid sizes ===============================
                      Simulation cell:  189 x 189 x 189
                              FFT-box:  117 x 117 x 117
                                  PPD:    7 x   7 x   1
Grid space d1=  0.499927596032a0 (KE cutoff=  30.39413Eh = 827.06648eV)
Grid space d2=  0.499927596032a0 (KE cutoff=  30.39413Eh = 827.06648eV)
Grid space d3=  0.499927596032a0 (KE cutoff=  30.39413Eh = 827.06648eV)
================================================================================
  
WARNING in cell_grid_distribute:
Average of less than one 23-slab per proc, so workload cannot be
equally balanced between procs.

********************* Fourier parallelisation information **********************
       Coarse grid (whole simulation cell) dimensions:    189   189   189
          Real-space ('12') slabs/proc (min max mean):      1     2     1
         Recip-space ('23') slabs/proc (min max mean):      0     1     0
********************************************************************************

********************* Fourier parallelisation information **********************
       Double grid (whole simulation cell) dimensions:    378   378   378
          Real-space ('12') slabs/proc (min max mean):      2     3     2
         Recip-space ('23') slabs/proc (min max mean):      1     2     1
********************************************************************************

Atom SCF Calculation for C  : Z (AE atom) =   6 : Z (PS atom) =   4
Config String: 2s2 2p2
Orbitals (num,occ):  2     2.00 2.00
Orbitals   (num,l):  2        0    1
Real-space Grid (nr,dr,rmax): 1377    0.0065406977    9.0000000000
Spherical Bessel Basis (nsws,lmax,cutoff):   37    2  183.0099912382
Confining potential (l,width,scale):  0    3.0000000000  100.0000000000
Confining potential (l,width,scale):  1    3.0000000000  100.0000000000
  1         -5.4795186097   -1.3252230651    4.5135247139   -1.6370402178
  2         -5.4480873667   -1.4027986130    4.4305957006   -1.6109824140
  3         -5.4553175168   -1.4212842775    4.4102621601   -1.6059044058
  4         -5.4627851864   -1.4247099971    4.4065125496   -1.6052912254
  5         -5.4662317525   -1.4266823431    4.4043718731   -1.6049357348
  6         -5.4679531179   -1.4277361345    4.4032352159   -1.6047498153
  7         -5.4688370531   -1.4282876632    4.4026436340   -1.6046546171
  8         -5.4692962224   -1.4285743132    4.4023378281   -1.6046060967
  9         -5.4695360875   -1.4287229388    4.4021801230   -1.6045813828
 10         -5.4696617783   -1.4287999625    4.4020988354   -1.6045687883
 11         -5.4697277645   -1.4288398966    4.4020569195   -1.6045623641
 12         -5.4697624500   -1.4288606199    4.4020352864   -1.6045590836
 13         -5.4697806994   -1.4288713865    4.4020241086   -1.6045574064
 14         -5.4697903086   -1.4288769875    4.4020183254   -1.6045565478
 15         -5.4697953717   -1.4288799052    4.4020153292   -1.6045561077
 16         -5.4697980412   -1.4288814272    4.4020137746   -1.6045558818
 17         -5.4697994496   -1.4288822223    4.4020129668   -1.6045557657
 18         -5.4698001930   -1.4288826382    4.4020125465   -1.6045557059
 19         -5.4698005858   -1.4288828561    4.4020123274   -1.6045556751
 20         -5.4698007933   -1.4288829704    4.4020122131   -1.6045556592
 21         -5.4698009031   -1.4288830304    4.4020121533   -1.6045556509
 22         -5.4698009612   -1.4288830620    4.4020121220   -1.6045556467
Atom SCF converged after  22 iterations to a total energy of     -5.46980096

Atom SCF Calculation for H  : Z (AE atom) =   1 : Z (PS atom) =   1
Config String: 1s1
Orbitals (num,occ):  1     1.00
Orbitals   (num,l):  1        0
Real-space Grid (nr,dr,rmax): 1377    0.0065406977    9.0000000000
Spherical Bessel Basis (nsws,lmax,cutoff):   37    1  183.0099912382
Confining potential (l,width,scale):  0    3.0000000000  100.0000000000
  1         -0.3687944832   -0.2607687933    0.2820952946   -0.2613406499
  2         -0.4328656062   -0.2590521405    0.2895573663   -0.2701762133
  3         -0.4633856573   -0.2560091938    0.2934204754   -0.2757429988
  4         -0.4750266404   -0.2549676794    0.2946557510   -0.2779015032
  5         -0.4793045155   -0.2546870695    0.2949704774   -0.2786577123
  6         -0.4808919118   -0.2546234645    0.2950332622   -0.2789201171
  7         -0.4814942533   -0.2546130669    0.2950388368   -0.2790132353
  8         -0.4817280090   -0.2546133926    0.2950352123   -0.2790473458
  9         -0.4818204053   -0.2546148712    0.2950319888   -0.2790602287
 10         -0.4818574273   -0.2546158825    0.2950301416   -0.2790652181
 11         -0.4818724050   -0.2546164247    0.2950292178   -0.2790671871
 12         -0.4818785049   -0.2546166894    0.2950287833   -0.2790679748
 13         -0.4818810009   -0.2546168128    0.2950285855   -0.2790682928
 14         -0.4818820255   -0.2546168689    0.2950284970   -0.2790684221
 15         -0.4818824471   -0.2546168940    0.2950284580   -0.2790684748
 16         -0.4818826210   -0.2546169051    0.2950284408   -0.2790684964
 17         -0.4818826928   -0.2546169100    0.2950284333   -0.2790685053
Atom SCF converged after  17 iterations to a total energy of     -0.48188269

Atom SCF Calculation for Li : Z (AE atom) =   3 : Z (PS atom) =   3
Config String: 1s2 2s1 2p0
Orbitals (num,occ):  3     2.00 1.00 0.00
Orbitals   (num,l):  3        0    0    1
Real-space Grid (nr,dr,rmax): 1377    0.0065406977    9.0000000000
Spherical Bessel Basis (nsws,lmax,cutoff):   37    2  183.0099912382
Confining potential (l,width,scale):  0    3.0000000000  100.0000000000
Confining potential (l,width,scale):  1    3.0000000000  100.0000000000
  1         -6.1314629607   -4.7499359229    2.5388576516   -1.0480231927
  2         -7.0450508208   -4.1702030791    2.9795337774   -1.2623862962
  3         -7.3518474013   -3.9564527259    3.2037296734   -1.3880788964
  4         -7.4613386962   -3.8947565558    3.2914990517   -1.4402825036
  5         -7.5001516047   -3.8789668192    3.3221434609   -1.4602864917
  6         -7.5136113510   -3.8755528126    3.3322769691   -1.4678164580
  7         -7.5181182589   -3.8751724459    3.3354399675   -1.4706394447
  8         -7.5195538340   -3.8753832694    3.3363346353   -1.4716958846
  9         -7.5199777516   -3.8756112412    3.3365363545   -1.4720903919
 10         -7.5200869011   -3.8757624244    3.3365501247   -1.4722372325
 11         -7.5201065703   -3.8758489541    3.3365264569   -1.4722916218
 12         -7.5201049812   -3.8758952022    3.3365040630   -1.4723116262
 13         -7.5201006323   -3.8759190019    3.3364892955   -1.4723189110
 14         -7.5200980758   -3.8759285770    3.3364824548   -1.4723210036
 15         -7.5200963811   -3.8759342877    3.3364781194   -1.4723220111
 16         -7.5200953120   -3.8759376792    3.3364754203   -1.4723224913
 17         -7.5200946593   -3.8759396866    3.3364737619   -1.4723227171
 18         -7.5200942701   -3.8759408718    3.3364727530   -1.4723228213
 19         -7.5200940419   -3.8759415700    3.3364721439   -1.4723228682
 20         -7.5200939099   -3.8759419808    3.3364717784   -1.4723228886
 21         -7.5200938343   -3.8759422222    3.3364715600   -1.4723228969
Atom SCF converged after  21 iterations to a total energy of     -7.52009383

Determining parallel strategy ...
... using space-filling curve
... NGWF load balancing: max     16;  min     12;  average     13
... Projector load balancing: max     32;  min     24;  average     26
... done
Calculating Ewald energy ...
              Ewald: real-space energy =   36475.764322
        Ewald: reciprocal-space energy =   34188.434729
         Ewald: (sum_charge)**2 Energy =    2670.615407
         Ewald: (sum_charge**2) Energy =     242.868632
                          Ewald Energy =   67750.715011
Basis initialisation ...... NGWF spheres initialised
... Projector spheres initialised
... NGWF tight boxes initialised
... Projector tight boxes initialised
... Tight-boxes gathered
... NGWF basis size (local,global):     262555  41875590
... PAW projector initialisation
... done

============================= Charge Augmentation ==============================
                           Aug box size:   13 x  13 x  13
================================================================================

========================== Sparse matrix information ===========================
                        Overlap matrix filling:  39.76%
                        Density kernel filling: 100.00%
              NGWF-Proj overlap matrix filling:  11.27%
                    Aug Overlap matrix filling:  44.06%
                    Hamiltonian matrix filling:  44.06%
                  NGWF diagonal matrix filling:   0.19%
                             KS matrix filling: 100.00% 
                           KSKS matrix filling: 100.00% 
================================================================================

Sparse matrix initialisation ... done

Reading NGWFs from file "592nano.tightbox_ngwfs" ...  done
============ Calculation of NGWF S^-1 using Hotelling algorithm ================ 
         Iteration  |  Frobenius norm and Maximum abs value    (of I-S*S_n^-1)   
               1       0.45203214E+02     0.99590391E+00
               2       0.44882604E+02     0.99184326E+00
               3       0.44288546E+02     0.98382359E+00
               4       0.43259732E+02     0.96816125E+00
               5       0.41664386E+02     0.93815310E+00
               6       0.39516885E+02     0.88236076E+00
               7       0.36921452E+02     0.78925903E+00
               8       0.33940794E+02     0.77014032E+00
               9       0.30808420E+02     0.74736737E+00
              10       0.27771514E+02     0.72984035E+00
              11       0.24511698E+02     0.70989228E+00
              12       0.20372676E+02     0.67364365E+00
              13       0.15009994E+02     0.60858990E+00
              14       0.89776405E+01     0.50836852E+00
              15       0.38699214E+01     0.37453475E+00
              16       0.10588951E+01     0.20847154E+00
              17       0.21109193E+00     0.66758728E-01
              18       0.20808735E-01     0.72658022E-02
              19       0.32587856E-03     0.10138431E-03
              20       0.10311284E-06     0.27915124E-07
              21       0.56496303E-13     0.44408921E-14
================================================================================
Calculating core density ...
================================= Core Density =================================
               Core den box size:   21 x  21 x  21
================================================================================
 ... done

Reading density kernel from file "592nano.dkn" ... done

>>> Optimising kernel for current NGWFs:

--------------------------- Ensemble-DFT optimisation --------------------------
Running ScaLAPACK on  160 processor(s).

Reading density kernel from file "592nano.dkn" ... done

--------------------------------------------------------------------------------
  Iter                              Commutator    Free_energy(A=E-TS)     DeltaA
#    0                          0.000006108405   -2896.36487768024381  -2.90E+03

Step                       =       0.381966011250
Energy (E)                 =   -2896.342710077527
Entropy (-TS)              =      -0.022167602717
Free energy (A=E-TS)       =   -2896.364877680244
Est. 0K Energy 0.5*(E+A)   =   -2896.353793878885
Residual Non-orthogonality =       0.000000000000
Residual N_electrons       =       0.000000000000

Spin          Integrated_Ne            Fermi_level     Delta_Fermi_level
   1      1031.000000000000        -0.108969259364             -1.09E-01
   2      1031.000000000000        -0.108969259406             -1.09E-01

                           Spin 1           |                 Spin 2           |
     Orb |    H-eigenvalues     Occupancies |    H-eigenvalues     Occupancies |
       1 |    -1.8539914842    1.0000000000 |    -1.8539914842    1.0000000000 | 
                          ------                             ------
    1027 |    -0.1392208512    0.9999289956 |    -0.1392208512    0.9999289956 | 
    1028 |    -0.1361849261    0.9998148258 |    -0.1361849261    0.9998148258 | 
    1029 |    -0.1144536569    0.8496470939 |    -0.1144536576    0.8496471195 | 
    1030 |    -0.1126759208    0.7632301713 |    -0.1126759208    0.7632301665 | 
    1031 |    -0.1109316828    0.6501467525 |    -0.1109316828    0.6501467465 | 
                 - Gap at zero temperature - |     - Gap at zero temperature -
                  Finite temp. Fermi level   |      Finite temp. Fermi level  
    1032 |    -0.1074646828    0.3834080281 |    -0.1074646827    0.3834080219 | 
    1033 |    -0.1035916353    0.1547110344 |    -0.1035916352    0.1547110310 | 
    1034 |    -0.1015896235    0.0886440366 |    -0.1015896235    0.0886440345 | 
    1035 |    -0.1008550510    0.0716068568 |    -0.1008550510    0.0716068550 | 
    1036 |    -0.0971174752    0.0231463988 |    -0.0971174752    0.0231463982 | 
                          ------                             ------
    2074 |     0.7627857825    0.0000000000 |     0.7627857826    0.0000000000 | 

                            |  Abs_value |  Threshold | Converged
     Delta_Free_energy/atom |   4.84E+00 |   1.00E-06 |        No
     Delta_Energy/atom      |   4.84E+00 |   1.00E-04 |        No
     Delta_Entropy/atom     |   3.71E-05 |   1.00E-04 |       Yes
     Commutator             |   6.11E-06 |   1.00E-05 |       Yes
     Delta_Fermi_level      |   1.09E-01 |   1.00E-03 |        No

  Line search of the free energy minimum:
  Step_type        Step             Free_energy   Predicted_free_energy
.   Initial    0.000000    -2896.36487768024381

Performing  Pulay mixing of Hamiltonian with coefficients:
                        Spin 1               Spin 2
                1.000000000000       1.000000000000
Lambda-->       0.002773868140       0.002773868173     ... done

.    Trial1    0.381966    -2896.36400374504274

Performing  Pulay mixing of Hamiltonian with coefficients:
                        Spin 1               Spin 2
                1.000000000000       1.000000000000
Lambda-->       0.002773868140       0.002773868173     ... done

.    Trial2    0.145898    -2896.36486185881995

Performing  Pulay mixing of Hamiltonian with coefficients:
                        Spin 1               Spin 2
                1.000000000000       1.000000000000
Lambda-->       0.002773868140       0.002773868173     ... done

. Quadratic    0.067076    -2896.36491974478895    -2896.36491922043797

--------------------------------------------------------------------------------
  Iter                              Commutator    Free_energy(A=E-TS)     DeltaA
#    1                          0.000000669859   -2896.36491974478895  -4.21E-05

Step                       =       0.067076337478
Energy (E)                 =   -2896.342773116317
Entropy (-TS)              =      -0.022146628599
Free energy (A=E-TS)       =   -2896.364919744789
Est. 0K Energy 0.5*(E+A)   =   -2896.353846430553
Residual Non-orthogonality =       0.000000000000
Residual N_electrons       =       0.000000000128

Spin          Integrated_Ne            Fermi_level     Delta_Fermi_level
   1      1031.000000000952        -0.108977341282             -8.08E-06
   2      1031.000000000219        -0.108977341251             -8.08E-06

                           Spin 1           |                 Spin 2           |
     Orb |    H-eigenvalues     Occupancies |    H-eigenvalues     Occupancies |
       1 |    -1.8540774682    1.0000000000 |    -1.8540774682    1.0000000000 | 
                          ------                             ------
    1027 |    -0.1392141915    0.9999286643 |    -0.1392141915    0.9999286643 | 
    1028 |    -0.1361831661    0.9998142495 |    -0.1361831660    0.9998142495 | 
    1029 |    -0.1144894477    0.8507614354 |    -0.1144894477    0.8507614346 | 
    1030 |    -0.1126762376    0.7627867783 |    -0.1126762376    0.7627867772 | 
    1031 |    -0.1109400459    0.6501669452 |    -0.1109400458    0.6501669439 | 
                 - Gap at zero temperature - |     - Gap at zero temperature -
                  Finite temp. Fermi level   |      Finite temp. Fermi level  
    1032 |    -0.1074740152    0.3835013799 |    -0.1074740151    0.3835013785 | 
    1033 |    -0.1035946549    0.1545021012 |    -0.1035946549    0.1545021005 | 
    1034 |    -0.1015820734    0.0882460677 |    -0.1015820733    0.0882460673 | 
    1035 |    -0.1008573291    0.0714851159 |    -0.1008573291    0.0714851155 | 
    1036 |    -0.0971256528    0.0231470815 |    -0.0971256534    0.0231470866 | 
                          ------                             ------
    2074 |     0.7627927162    0.0000000000 |     0.7627927162    0.0000000000 | 

                            |  Abs_value |  Threshold | Converged
     Delta_Free_energy/atom |   7.03E-08 |   1.00E-06 |       Yes
     Delta_Energy/atom      |   1.05E-07 |   1.00E-04 |       Yes
     Delta_Entropy/atom     |   3.51E-08 |   1.00E-04 |       Yes
     Commutator             |   6.70E-07 |   1.00E-05 |       Yes
     Delta_Fermi_level      |   8.08E-06 |   1.00E-03 |       Yes
EDFT occupancies loop converged after    1 iterations.


Writing density kernel to file "592nano.dkn" ... done


>>> Density kernel optimised for the current NGWF basis:
     ~~~~~~~~~~~~~~~~~~~~~~~~~~~~~~~~~~~~~~~~~~~~~~~~~~~~~~~~~~~
     Total free energy           =  -2.89636491974479E+03  Eh
     [H,K] commutator            =   6.6986E-07
     ~~~~~~~~~~~~~~~~~~~~~~~~~~~~~~~~~~~~~~~~~~~~~~~~~~~~~~~~~~~




[...]
 C   240 -- Li  594       -0.06     -0.00      5.49124
 C   361 -- C   371       -0.07     -0.00      5.49138
 H   321 -- Li  597       -0.02      0.00      5.52572
 H   335 -- Li  598       -0.02     -0.00      5.53464
 C   422 -- Li  596       -0.06     -0.00      5.58965
 C   356 -- Li  593       -0.08      0.00      5.60773
 H   279 -- Li  593       -0.01     -0.00      5.63394
 C   391 -- Li  597       -0.03     -0.00      5.63956
 H   286 -- Li  594       -0.02     -0.00      5.65263
=============================================================


============== Orbital energy and occupancy information for spin 1 =============

      Total number of orbitals:    2074
        Occupancy sum (kernel):    1030.999999999
   Occupancy sum (eigenvalues):    1030.999999999
                 HOMO-LUMO gap:       0.003474694 Eh
                 Mid-gap level:      -0.109192163 Eh

                        Orbital | Energy (Eh) | Occupancy
                            1    -1.854090644   1.0000000
                        .......   ...........   .........
                         1022    -0.150076378   0.9999977
                         1023    -0.148063868   0.9999956
                         1024    -0.145516982   0.9999903
                         1025    -0.145344468   0.9999897
                         1026    -0.140508097   0.9999527
                         1027    -0.139210192   0.9999287
                         1028    -0.136176695   0.9998142
                         1029    -0.114463476   0.8506379
                         1030    -0.112668437   0.7628869
                         1031    -0.110929510   0.6502965
                        ....... -- gap at 0K -- .........
                         1032    -0.107454816   0.3833113
                         1033    -0.103582936   0.1545143
                         1034    -0.101574361   0.0882756
                         1035    -0.100845499   0.0715002
                         1036    -0.097119900   0.0231730
                         1037    -0.091448693   0.0039489
                         1038    -0.090531084   0.0029530
                         1039    -0.089067788   0.0018619
                         1040    -0.088811053   0.0017198
                         1041    -0.088465600   0.0015410
                        .......   ...........   .........
                         2074     0.762845027   0.0000000

================================================================================

============== Orbital energy and occupancy information for spin 2 =============

      Total number of orbitals:    2074
        Occupancy sum (kernel):    1031.000000001
   Occupancy sum (eigenvalues):    1031.000000001
                 HOMO-LUMO gap:       0.003474694 Eh
                 Mid-gap level:      -0.109192163 Eh

                        Orbital | Energy (Eh) | Occupancy
                            1    -1.854090644   1.0000000
                        .......   ...........   .........
                         1022    -0.150076378   0.9999977
                         1023    -0.148063868   0.9999956
                         1024    -0.145516982   0.9999903
                         1025    -0.145344469   0.9999897
                         1026    -0.140508097   0.9999527
                         1027    -0.139210192   0.9999287
                         1028    -0.136176695   0.9998142
                         1029    -0.114463476   0.8506379
                         1030    -0.112668437   0.7628869
                         1031    -0.110929510   0.6502965
                        ....... -- gap at 0K -- .........
                         1032    -0.107454816   0.3833113
                         1033    -0.103582936   0.1545143
                         1034    -0.101574361   0.0882756
                         1035    -0.100845499   0.0715002
                         1036    -0.097119900   0.0231730
                         1037    -0.091448693   0.0039489
                         1038    -0.090531084   0.0029530
                         1039    -0.089067788   0.0018619
                         1040    -0.088811053   0.0017198
                         1041    -0.088465600   0.0015410
                        .......   ...........   .........
                         2074     0.762845027   0.0000000

================================================================================

===================== Writing canonical molecular orbitals =====================
    Spin 1
| Orbital  Energy (eV)  Norm     |
| HOMO     -3.01854555  1.000000 | Writing "592nano_HOMO_UP.cube" ... done
Writing "592nano_HOMO_UP.dx" ... done
| LUMO     -2.92399432  1.000000 | Writing "592nano_LUMO_UP.cube" ... done
Writing "592nano_LUMO_UP.dx" ... done
================================================================================

===================== Writing canonical molecular orbitals =====================
    Spin 2
| Orbital  Energy (eV)  Norm     |
| HOMO     -3.01854555  1.000000 | Writing "592nano_HOMO_DN.cube" ... done
Writing "592nano_HOMO_DN.dx" ... done
| LUMO     -2.92399432  1.000000 | Writing "592nano_LUMO_DN.cube" ... done
Writing "592nano_LUMO_DN.dx" ... done
================================================================================

================== Local Density of States (LDOS) calculation ==================
Writing "592nano_UP_LDOS.txt" ...  done
================================================================================

================== Local Density of States (LDOS) calculation ==================
Writing "592nano_DN_LDOS.txt" ...  done
================================================================================
 
=============== Density of States (DOS) calculation for UP spin ================
Writing "592nano_UP_DOS.txt" ...  done
================================================================================
 
============== Density of States (DOS) calculation for DOWN spin ===============
Writing "592nano_DN_DOS.txt" ...  done
================================================================================
 
Writing bands to file "592nano.val_bands" ... done
 
================ Projected Density of States (pDOS) calculation ================
 
Constructing AM resolved functions  ...... done
Writing NGWF plot files in formats: CUBE DX ...  done
 
Performing overlap integrals ...  done
 
Computing pDOS weights ...  done
 
All bands spilling parameter =   3.81 %
Occupancy-weighted spilling parameter =   0.92 %
 
 => Outputting data for OptaDOS <=
 
Writing pDOS weights to file "592nano.val_pdos_bin" ... done
 
Writing band gradients to file "592nano.val_dome_bin" ... done
 
Writing Castep output cell file to "592nano-out.cell" ... done
 
 => Computing Gaussian smeared pDOS for UP spin<= 
Writing "592nano_UP_PDOS.txt" ...  done
 
 => Computing Gaussian smeared pDOS for DOWN spin<= 
Writing "592nano_DN_PDOS.txt" ...  done
 
 => Computing Occupancy-weighted Gaussian smeared pDOS for UP spin<= 
Writing "592nano_occ_UP_PDOS.txt" ...  done
  => Band centres for UP spin channel: 
 S band centre of group 1:  -14.378562 eV
 P band centre of group 1:   -7.589935 eV
  Band centres for UP spin channel done. <= 
  => Integrated number of electrons in each AM band for UP spin channel: 
 S num electrons of group 1:  272.790402
 P num electrons of group 1:  748.731942
  Integrated number of electrons for UP spin channel done. <= 
 
 => Computing Occupancy-weighted Gaussian smeared pDOS for DOWN spin<= 
Writing "592nano_occ_DN_PDOS.txt" ...  done
  => Band centres for DOWN spin channel: 
 S band centre of group 1:  -14.378562 eV
 P band centre of group 1:   -7.589935 eV
  Band centres for DOWN spin channel done. <=
  => Integrated number of electrons in each AM band for DOWN spin channel: 
 S num electrons of group 1:  272.790402
 P num electrons of group 1:  748.731942
  Integrated number of electrons for DOWN spin channel done. <=
================================================================================

------------------------------ TIMING INFORMATION ------------------------------
AVERAGE TIME:    2074.510s on    160 proc(s)                                    
TOTAL TIME:      2074.512s on    160 proc(s)                                    
================= AVERAGE TIMINGS FROM ALL PROCS (CUMULATIVE) ==================
|| TAG                                    #calls    cpu time   %total  Gflops ||
|| work_imbalance                       :     1        0.00s   0.000%  ------ ||
|| paw_dij_hartree                      :    28        0.00s   0.000%  ------ ||
|| sparse_set_to_garbage                :    48        0.00s   0.000%  ------ ||
|| basis_extract_function_from_box      :    90        0.01s   0.000%  ------ ||
|| paw_tcore_density                    :     1        0.01s   0.000%  ------ ||
|| paw_sphere_density_on_grid           :     1        0.01s   0.001%  ------ ||
|| ngwfs_initialise_from_radial         :     1        0.02s   0.001%  ------ ||
|| ewald_calculate_energy               :     1        0.10s   0.005%  ------ ||
|| restart_kernel_write                 :     3        0.27s   0.013%  ------ ||
|| augmentation_screen_dij              :    21        0.28s   0.013%  ------ ||
|| paw_dataset_init                     :     3        0.37s   0.018%  ------ ||
|| paw_tcore_hartree_on_grid            :     1        0.42s   0.020%  ------ ||
|| pseudo_make_structure_factor         :     1        0.48s   0.023%  ------ ||
|| restart_kernel_read                  :     2        0.55s   0.026%  ------ ||
|| restart_ngwfs_tightbox_input         :     1        0.57s   0.027%  ------ ||
|| dense_normal_eigensolve              :     1        0.89s   0.043%  ------ ||
|| sparse_init                          :     1        0.90s   0.043%  ------ ||
|| hartree_on_grid                      :    20        1.05s   0.051%  ------ ||
|| paw_dij_xc                           :    28        1.15s   0.055%  ------ ||
|| basis_copy_function_to_box           :   946        1.17s   0.056%  ------ ||
|| sparse_embed_hotelling_invert_embed  :     6        1.25s   0.060%  ------ ||
|| ngwf_gradient_coeffs                 :     3        1.36s   0.066%  ------ ||
|| fourier_apply_box_pair               :   196        2.14s   0.103%  2.421k ||
|| sparse_trace                         :   476        2.22s   0.107%  ------ ||
|| paw_species_calc_proj_prec_mat       :     1        2.34s   0.113%  ------ ||
|| augmentation_density_on_grid         :    21        2.71s   0.131%  ------ ||
|| aug_nonlocal_mat                     :    25        3.32s   0.160%  ------ ||
|| projectors_init_fftbox_recip         :    14        5.72s   0.276%  ------ ||
|| sw_init                              :     1        6.99s   0.337%  ------ ||
|| dense_eigensolve                     :    22        7.05s   0.340%  ------ ||
|| integrals_kinetic                    :     6        7.11s   0.343%  ------ ||
|| basis_dot_function_with_box          : 277.6k       7.63s   0.368%  ------ ||
|| function_ops_brappd_ketppd           :    14        9.11s   0.439%  ------ ||
|| projectors_func_ovlp_box             :     7        9.84s   0.475%  ------ ||
|| sparse_product                       :   620       13.05s   0.629%  ------ ||
|| fourier_apply_cell_forward           :   704       13.20s   0.636% 185.698 ||
|| fourier_apply_cell_backward          :   781       15.60s   0.752% 174.202 ||
|| cell_grid_deposit_box_real           :  1420       16.97s   0.818%  ------ ||
|| integrals_locpot_mat_els_batch       :    19       20.74s   1.000%  ------ ||
|| edft_diag_ngwf_ham                   :    20       22.56s   1.088%  ------ ||
|| hamiltonian_energy_components        :     1       23.22s   1.119%  ------ ||
|| basis_add_function_to_box            : 705.6k      24.26s   1.169%  ------ ||
|| density_fftbox_deposit_to_cell       :   672       30.28s   1.460%  ------ ||
|| restart_ngwfs_tightbox_output        :     2       35.39s   1.706%  ------ ||
|| edft_apply_smearing_operator         :    10       36.21s   1.745%  ------ ||
|| density_batch_row_sums               :    21       36.56s   1.762%  ------ ||
|| xc_energy_potential                  :    19       39.28s   1.894%  ------ ||
|| nlxc_vdw_energy                      :    38       49.90s   2.405%  ------ ||
|| density_fftbox_interpolate_multiply  :   672       58.31s   2.811%  ------ ||
|| potential_apply_to_ngwf_batch        :    19       60.36s   2.909%  ------ ||
|| fourier_apply_box                    :  3322       67.76s   3.266%  4.042k ||
|| eigenstates_pdos                     :     1       81.22s   3.915%  ------ ||
|| integrals_locpot_dbl_grid            :    19       81.62s   3.935%  ------ ||
|| density_batch_interp_deposit         :    21      108.67s   5.238%  ------ ||
|| projectors_gradient_batch            :     3      122.75s   5.917%  ------ ||
|| density_on_dbl_grid                  :    21      148.86s   7.176%  ------ ||
|| projectors_grad_precond_batch        :     3      170.20s   8.204%  ------ ||
|| eigenstates_calculate                :     1      171.29s   8.257%  ------ ||
|| hamiltonian_lhxc_calculate           :    18      176.48s   8.507%  ------ ||
|| edft_calculate                       :     3      247.14s  11.913%  ------ ||
|| ngwf_gradient_build_batch            :     3      325.08s  15.670%  ------ ||
|| cell_grid_extract_box_real           :   588      326.33s  15.730%  ------ ||
|| ngwf_gradient_batch                  :     3      352.53s  16.993%  ------ ||
|| ngwf_gradient_lnv                    :     3      355.96s  17.159%  ------ ||
|| ngwf_cg_optimise                     :     1      847.12s  40.835%  ------ ||
|| properties_calculate                 :     1     1217.27s  58.678%  ------ ||
|| total_time                           :     1     2074.51s 100.000%  ------ ||
================================================================================
==================== AVERAGE TIMINGS FROM ALL PROCS (SELF) =====================
++ TAG                                    #calls    cpu time   %total  Gflops ++
++ work_imbalance                       :     1        0.00s   0.000%  ------ ++
++ paw_dij_hartree                      :    28        0.00s   0.000%  ------ ++
++ sparse_set_to_garbage                :    48        0.00s   0.000%  ------ ++
++ paw_tcore_density                    :     1        0.01s   0.000%  ------ ++
++ basis_extract_function_from_box      :    90        0.01s   0.000%  ------ ++
++ paw_sphere_density_on_grid           :     1        0.01s   0.000%  ------ ++
++ paw_tcore_hartree_on_grid            :     1        0.01s   0.001%  ------ ++
++ sparse_embed_hotelling_invert_embed  :     6        0.01s   0.001%  ------ ++
++ ngwfs_initialise_from_radial         :     1        0.02s   0.001%  ------ ++
++ ngwf_gradient_coeffs                 :     3        0.03s   0.001%  ------ ++
++ ewald_calculate_energy               :     1        0.10s   0.005%  ------ ++
++ hartree_on_grid                      :    20        0.19s   0.009%  ------ ++
++ aug_nonlocal_mat                     :    25        0.21s   0.010%  ------ ++
++ augmentation_screen_dij              :    21        0.23s   0.011%  ------ ++
++ restart_kernel_write                 :     3        0.27s   0.013%  ------ ++
++ paw_dataset_init                     :     3        0.37s   0.018%  ------ ++
++ pseudo_make_structure_factor         :     1        0.48s   0.023%  ------ ++
++ integrals_locpot_dbl_grid            :    19        0.53s   0.025%  ------ ++
++ restart_kernel_read                  :     2        0.55s   0.026%  ------ ++
++ restart_ngwfs_tightbox_input         :     1        0.56s   0.027%  ------ ++
++ hamiltonian_energy_components        :     1        0.58s   0.028%  ------ ++
++ augmentation_density_on_grid         :    21        0.89s   0.043%  ------ ++
++ dense_normal_eigensolve              :     1        0.89s   0.043%  ------ ++
++ sparse_init                          :     1        0.90s   0.043%  ------ ++
++ paw_dij_xc                           :    28        1.15s   0.055%  ------ ++
++ basis_copy_function_to_box           :   946        1.17s   0.056%  ------ ++
++ paw_species_calc_proj_prec_mat       :     1        1.96s   0.094%  ------ ++
++ ngwf_gradient_lnv                    :     3        2.07s   0.100%  ------ ++
++ fourier_apply_box_pair               :   196        2.14s   0.103%  2.421k ++
++ sparse_trace                         :   476        2.22s   0.107%  ------ ++
++ main_program_(onetep.F90)            :     1        2.33s   0.113%  ------ ++
++ nlxc_vdw_energy                      :    38        2.98s   0.143%  ------ ++
++ density_on_dbl_grid                  :    21        3.63s   0.175%  ------ ++
++ edft_calculate                       :     3        3.98s   0.192%  ------ ++
++ projectors_func_ovlp_box             :     7        4.27s   0.206%  ------ ++
++ integrals_kinetic                    :     6        5.24s   0.253%  ------ ++
++ projectors_init_fftbox_recip         :    14        5.72s   0.276%  ------ ++
++ sw_init                              :     1        6.99s   0.337%  ------ ++
++ dense_eigensolve                     :    22        7.05s   0.340%  ------ ++
++ basis_dot_function_with_box          : 277.6k       7.63s   0.368%  ------ ++ (!) overhead: ~   4.9%
++ hamiltonian_lhxc_calculate           :    18        8.05s   0.388%  ------ ++
++ xc_energy_potential                  :    19        8.77s   0.423%  ------ ++
++ function_ops_brappd_ketppd           :    14        9.11s   0.439%  ------ ++
++ density_batch_interp_deposit         :    21        9.64s   0.465%  ------ ++
++ edft_apply_smearing_operator         :    10       12.83s   0.618%  ------ ++
++ sparse_product                       :   620       13.05s   0.629%  ------ ++
++ fourier_apply_cell_forward           :   704       13.20s   0.636% 185.698 ++
++ density_fftbox_deposit_to_cell       :   672       13.59s   0.655%  ------ ++
++ ngwf_gradient_build_batch            :     3       13.76s   0.663%  ------ ++
++ integrals_locpot_mat_els_batch       :    19       15.34s   0.739%  ------ ++
++ fourier_apply_cell_backward          :   781       15.60s   0.752% 174.202 ++
++ edft_diag_ngwf_ham                   :    20       16.18s   0.780%  ------ ++
++ cell_grid_deposit_box_real           :  1420       16.97s   0.818%  ------ ++
++ ngwf_gradient_batch                  :     3       17.17s   0.828%  ------ ++
++ density_batch_row_sums               :    21       22.65s   1.092%  ------ ++
++ density_fftbox_interpolate_multiply  :   672       23.08s   1.112%  ------ ++
++ basis_add_function_to_box            : 705.6k      24.26s   1.169%  ------ ++ (!) overhead: ~   3.9%
++ potential_apply_to_ngwf_batch        :    19       32.66s   1.574%  ------ ++
++ restart_ngwfs_tightbox_output        :     2       35.39s   1.706%  ------ ++
++ eigenstates_calculate                :     1       65.09s   3.138%  ------ ++
++ fourier_apply_box                    :  3322       67.76s   3.266%  4.042k ++
++ eigenstates_pdos                     :     1       70.16s   3.382%  ------ ++
++ projectors_gradient_batch            :     3      120.40s   5.804%  ------ ++
++ ngwf_cg_optimise                     :     1      132.77s   6.400%  ------ ++
++ projectors_grad_precond_batch        :     3      167.51s   8.074%  ------ ++
++ cell_grid_extract_box_real           :   588      326.33s  15.730%  ------ ++
++ properties_calculate                 :     1      721.91s  34.799%  ------ ++
================================================================================
(!) WARNING: You're wasting precious cycles calling timer. 
             Each pair of timer_clock calls itself cost   1.35 microseconds!
Overhead of generating timer report: 
- 0 ms averaging over threads,
- 27 ms ensuring consistency across MPI ranks,
- 1 ms printing in order.

Job completed: 06-09-2021 11:39 (+0100)

