 +---------------------------------------------------------------+
 |                                                               |
 |        ####### #     # ####### ####### ####### ######         |
 |        #     # ##    # #          #    #       #     #        |
 |        #     # # #   # #          #    #       #     #        |
 |        #     # #  #  # #####      #    #####   ######         |
 |        #     # #   # # #          #    #       #              |
 |        #     # #    ## #          #    #       #              |
 |        ####### #     # #######    #    ####### #              |
 |                                                               |
 |        Linear-Scaling Ab Initio Total Energy Program          |
 |                                                               |
 |          Release for academic collaborators of ODG            |
 |                                             Version 5.3.2.12  |
 |                                                               |
 +---------------------------------------------------------------+
 |                                                               |
 |  Authors:                                                     |
 |  Jacek Dziedzic, Peter D. Haynes, Nicholas D. M. Hine,        |
 |  Arash. A. Mostofi, Mike C. Payne and Chris-Kriton Skylaris   |
 |                                                               |
 |  Contributors:                                                |
 |  J. Aarons, L. Andrinopoulos, P. W. Avraam, R. A. Bell,       |
 |  A. Bhandari, G. A. Bramley, R. J. Charlton, S. J. Clark,     |
 |  R. J. Clements, G. C. Constantinescu, F. Corsetti,           |
 |  N. Corsini, O. Dieguez, S. M. M. Dubois, K. K. B. Duff,      |
 |  J. M. Escartin, A. Greco, H. Helal, Q. O. Hill, L. P. Lee,   |
 |  J.-H. Li, E. B. Linscott, G. Moynihan, D. D. O`Regan,        |
 |  O. K. Okan, M. J. S. Phipps, C. J. Pickard,                  |
 |  J. C. A. Prentice, M. I. J. Probert, L. E. Ratcliff,         |
 |  M. Robinson, A. Ruiz Serrano, J. S. Spencer, E. W. Tait,     |
 |  G. Teobaldi, D. Turban, V. Vitale, K. A. Wilkinson,          |
 |  C. Weber, J. C. Womack, N. Yeung and T. J. Zuehlsdorff       |
 |                                                               |
 |                                   Copyright (c) 2004-2020     |
 |                                                               |
 |  Please cite:                                                 |
 |  "Introducing ONETEP: Linear-scaling density functional       |
 |   simulations on parallel computers".                         |
 |   C.-K. Skylaris, P. D. Haynes, A. A. Mostofi, M. C. Payne.   |
 |   J. Chem. Phys. 122 084119 (2005).                           |
 |                                                               |
 |          in all publications arising from your use of ONETEP. |
 |                                                               |
 +---------------------------------------------------------------+
 |                                                               |
 |   ONETEP is based on developments described in the following  |
 |   publications:                                               |
 |                                                               |
 |  "Nonorthogonal generalized Wannier function pseudopotential  |
 |   plane-wave method".                                         |
 |   C.-K. Skylaris, A. A. Mostofi, P. D. Haynes, O. Dieguez,    |
 |   M. C. Payne.                                                |
 |   Phys. Rev. B 66 035119 (2002).                              |
 |                                                               |
 |  "Preconditioned iterative minimization for linear-scaling    |
 |   electronic structure calculations".                         |
 |   A. A. Mostofi, P. D. Haynes, C.-K. Skylaris, M. C. Payne.   |
 |   J. Chem. Phys. 119(17), pp.8842-8848 (2003).                |
 |                                                               |
 |  "Total-energy calculations on a real space grid with         |
 |   localized functions and a plane-wave basis".                |
 |   A. A. Mostofi, C.-K. Skylaris, P. D. Haynes, M. C. Payne.   |
 |   Comput. Phys. Commun. 147, pp.788-802 (2002).               |
 |                                                               |
 |  "Accurate kinetic energy evaluation in electronic structure  |
 |   calculations with localized functions on real space grids"  |
 |   C.-K. Skylaris, A. A. Mostofi, P. D. Haynes, C. J. Pickard, |
 |   M. C. Payne.                                                |
 |   Comput. Phys. Commun. 140, pp.315-322 (2001).               |
 |                                                               |
 |  "Accurate ionic forces and geometry optimization in linear-  |
 |   scaling density-functional theory with local orbitals"      |
 |   N. D. M. Hine, M. Robinson, P. D. Haynes, C.-K. Skylaris,   |
 |   M. C. Payne, and A. A. Mostofi.                             |
 |   Phys. Rev. B 83 195102 (2011).                              |
 |                                                               |
 +---------------------------------------------------------------+

Job started: 25-02-2020 00:18 (-0000)
 
Reading parameters from file "2.9783632_GO_manual_4x64graphite.dat" ...

WARNING: "cutoff_energy" not specified, but "psinc_spacing" specified.
         Using the latter to set the KE cutoff energy to  732.32021eV,
         thus *overriding* the default.

... done

If your calculation crashes here, before "Checking processes and threads..."
is displayed, then your stack size is insufficient.
If so, use "ulimit -s unlimited" at runtime.
You can disable this check with "check_stack_size F".

Checking processes and threads...
   Determining the default number of threads...
      No default threads set at compilation time: defaulting to 1.
      OpenMP library call suggests 4 threads.
      Hybrid MPI-OpenMP compilation detected.
      Number of MPI processes > 1.
      OMP_NUM_THREADS environment variable present and
      its value matches the one obtained from the OpenMP library call.
      Using this value as default.
      Default threads: 4
      Default applies to threads_max and threads_num_fftboxes.
      Settings in the input file override this default.
   ... done

   Running with 40 MPI processes.
   There are 10 MPI processes running on the same node as the root process.
   Each MPI process is using: 
               1 threads for simulation cell FFTs.
               1 threads for parallel FFT box operations.
               4 threads for loops over batched FFT box operations.
               4 threads in other parallel regions.
... done

Basic input checks...
Resetting ngwf_cg_rotate to TRUE for EDFT calculations
... done

Reading geometry and species blocks from file "2.9783632_GO_manual_4x64graphite.dat" ...
    
  PSINC grid spacing along a1 set to   0.511215680000a0 from input file.
  PSINC grid spacing along a2 set to   0.531284090000a0 from input file.
  PSINC grid spacing along a3 set to   0.507054260000a0 from input file.
  PSINC grid spacing along a1 set to   0.511215680000a0 from input file.
  PSINC grid spacing along a2 set to   0.531284090000a0 from input file.
  PSINC grid spacing along a3 set to   0.507054260000a0 from input file.
  Number of PPD points along a3 set to 1.  This is 
  the default value, it may have been provided also in the input file.
... done
 Writing xyz coordinates to file "2.9783632_GO_manual_4x64graphite.xyz" ... done


--------------------------------------------------------------------------------
---------------------------------- INPUT FILE ----------------------------------
--------------------------------------------------------------------------------

task : singlepoint                                                              
do_properties : true                                                            
dx_format T                                                                     
edft T                                                                          
output_detail VERBOSE                                                           
write_xyz T                                                                     
xc_functional OPTPBE                                                            
PSINC_SPACING 0.51121568 0.53128409 0.50705426                                  
paw T                                                                           
pdos_max_l = 2                                                                  
dos_smear  0.1 eV                                                               
popn_calculate T                                                                
PDOS_PSEUDOATOMIC T                                                             
PDOS_REDUCE_SWS F                                                               
PDOS_CONSTRUCT_BASIS F                                                          
PDOS_LOWDIN T                                                                   
PDOS_ORTH_ATOM_BLOCKS F                                                         
PDOS_LCAO_OPTIMIZE F                                                            
pdos_optados_output T                                                           
homo_plot 0                                                                     
lumo_plot 0                                                                     
homo_dens_plot -1                                                               
lumo_dens_plot -1                                                               
%BLOCK SPECIES                                                                  
C C 6 4 9.0                                                                     
%ENDBLOCK SPECIES                                                               
%BLOCK SPECIES_POT                                                              
C "~/pp/paw/c_pbe_abinit.paw"                                                   
%ENDBLOCK SPECIES_POT                                                           
%BLOCK SPECIES_ATOMIC_SET                                                       
C "SOLVE conf=2s2 2p2"                                                          
%ENDBLOCK SPECIES_ATOMIC_SET                                                    
%BLOCK LATTICE_CART                                                             
32.21  0.00  0.00                                                               
0.00 18.59  0.00                                                                
0.00  0.00 56.28                                                                
%ENDBLOCK LATTICE_CART                                                          
%BLOCK POSITIONS_ABS                                                            
C  0.00  0.00  2.81                                                             
C  0.00  0.00 14.07                                                             
C  0.00  0.00 25.33                                                             
C  0.00  0.00 36.58                                                             
C  0.00  0.00 47.84                                                             
C  0.00  4.65  2.81                                                             
C  0.00  4.65 14.07                                                             
C  0.00  4.65 25.33                                                             
C  0.00  4.65 36.58                                                             
C  0.00  4.65 47.84                                                             
C  4.03  2.32  2.81                                                             
C  4.03  2.32 14.07                                                             
C  4.03  2.32 25.33                                                             
C  4.03  2.32 36.58                                                             
C  4.03  2.32 47.84                                                             
C  8.05  0.00  2.81                                                             
C  8.05  0.00 14.07                                                             
C  8.05  0.00 25.33                                                             
C  8.05  0.00 36.58                                                             
C  8.05  0.00 47.84                                                             
C  0.00  9.30  2.81                                                             
C  0.00  9.30 14.07                                                             
C  0.00  9.30 25.33                                                             
C  0.00  9.30 36.58                                                             
C  0.00  9.30 47.84                                                             
C  4.03  6.97  2.81                                                             
C  4.03  6.97 14.07                                                             
C  4.03  6.97 25.33                                                             
C  4.03  6.97 36.58                                                             
C  4.03  6.97 47.84                                                             
C  8.05  4.65  2.81                                                             
C  8.05  4.65 14.07                                                             
C  8.05  4.65 25.33                                                             
C  8.05  4.65 36.58                                                             
C  8.05  4.65 47.84                                                             
C 12.08  2.32  2.81                                                             
C 12.08  2.32 14.07                                                             
C 12.08  2.32 25.33                                                             
C 12.08  2.32 36.58                                                             
C 12.08  2.32 47.84                                                             
C 16.10  0.00  2.81                                                             
C 16.10  0.00 14.07                                                             
C 16.10  0.00 25.33                                                             
C 16.10  0.00 36.58                                                             
C 16.10  0.00 47.84                                                             
C  0.00 13.95  2.81                                                             
C  0.00 13.95 14.07                                                             
C  0.00 13.95 25.33                                                             
C  0.00 13.95 36.58                                                             
C  0.00 13.95 47.84                                                             
C  4.03 11.62  2.81                                                             
C  4.03 11.62 14.07                                                             
C  4.03 11.62 25.33                                                             
C  4.03 11.62 36.58                                                             
C  4.03 11.62 47.84                                                             
C  8.05  9.30  2.81                                                             
C  8.05  9.30 14.07                                                             
C  8.05  9.30 25.33                                                             
C  8.05  9.30 36.58                                                             
C  8.05  9.30 47.84                                                             
C 12.08  6.97  2.81                                                             
C 12.08  6.97 14.07                                                             
C 12.08  6.97 25.33                                                             
C 12.08  6.97 36.58                                                             
C 12.08  6.97 47.84                                                             
C 16.10  4.65  2.81                                                             
C 16.10  4.65 14.07                                                             
C 16.10  4.65 25.33                                                             
C 16.10  4.65 36.58                                                             
C 16.10  4.65 47.84                                                             
C 20.13  2.32  2.81                                                             
C 20.13  2.32 14.07                                                             
C 20.13  2.32 25.33                                                             
C 20.13  2.32 36.58                                                             
C 20.13  2.32 47.84                                                             
C 24.16  0.00  2.81                                                             
C 24.16  0.00 14.07                                                             
C 24.16  0.00 25.33                                                             
C 24.16  0.00 36.58                                                             
C 24.16  0.00 47.84                                                             
C  4.03 16.27  2.81                                                             
C  4.03 16.27 14.07                                                             
C  4.03 16.27 25.33                                                             
C  4.03 16.27 36.58                                                             
C  4.03 16.27 47.84                                                             
C  8.05 13.95  2.81                                                             
C  8.05 13.95 14.07                                                             
C  8.05 13.95 25.33                                                             
C  8.05 13.95 36.58                                                             
C  8.05 13.95 47.84                                                             
C 12.08 11.62  2.81                                                             
C 12.08 11.62 14.07                                                             
C 12.08 11.62 25.33                                                             
C 12.08 11.62 36.58                                                             
C 12.08 11.62 47.84                                                             
C 16.10  9.30  2.81                                                             
C 16.10  9.30 14.07                                                             
C 16.10  9.30 25.33                                                             
C 16.10  9.30 36.58                                                             
C 16.10  9.30 47.84                                                             
C 20.13  6.97  2.81                                                             
C 20.13  6.97 14.07                                                             
C 20.13  6.97 25.33                                                             
C 20.13  6.97 36.58                                                             
C 20.13  6.97 47.84                                                             
C 24.16  4.65  2.81                                                             
C 24.16  4.65 14.07                                                             
C 24.16  4.65 25.33                                                             
C 24.16  4.65 36.58                                                             
C 24.16  4.65 47.84                                                             
C 28.18  2.32  2.81                                                             
C 28.18  2.32 14.07                                                             
C 28.18  2.32 25.33                                                             
C 28.18  2.32 36.58                                                             
C 28.18  2.32 47.84                                                             
C 12.08 16.27  2.81                                                             
C 12.08 16.27 14.07                                                             
C 12.08 16.27 25.33                                                             
C 12.08 16.27 36.58                                                             
C 12.08 16.27 47.84                                                             
C 16.10 13.95  2.81                                                             
C 16.10 13.95 14.07                                                             
C 16.10 13.95 25.33                                                             
C 16.10 13.95 36.58                                                             
C 16.10 13.95 47.84                                                             
C 20.13 11.62  2.81                                                             
C 20.13 11.62 14.07                                                             
C 20.13 11.62 25.33                                                             
C 20.13 11.62 36.58                                                             
C 20.13 11.62 47.84                                                             
C 24.16  9.30  2.81                                                             
C 24.16  9.30 14.07                                                             
C 24.16  9.30 25.33                                                             
C 24.16  9.30 36.58                                                             
C 24.16  9.30 47.84                                                             
C 28.18  6.97  2.81                                                             
C 28.18  6.97 14.07                                                             
C 28.18  6.97 25.33                                                             
C 28.18  6.97 36.58                                                             
C 28.18  6.97 47.84                                                             
C 20.13 16.27  2.81                                                             
C 20.13 16.27 14.07                                                             
C 20.13 16.27 25.33                                                             
C 20.13 16.27 36.58                                                             
C 20.13 16.27 47.84                                                             
C 24.16 13.95  2.81                                                             
C 24.16 13.95 14.07                                                             
C 24.16 13.95 25.33                                                             
C 24.16 13.95 36.58                                                             
C 24.16 13.95 47.84                                                             
C 28.18 11.62  2.81                                                             
C 28.18 11.62 14.07                                                             
C 28.18 11.62 25.33                                                             
C 28.18 11.62 36.58                                                             
C 28.18 11.62 47.84                                                             
C 28.18 16.27  2.81                                                             
C 28.18 16.27 14.07                                                             
C 28.18 16.27 25.33                                                             
C 28.18 16.27 36.58                                                             
C 28.18 16.27 47.84                                                             
C  0.00  0.00  8.44                                                             
C  0.00  0.00 19.70                                                             
C  0.00  0.00 30.96                                                             
C  0.00  0.00 42.21                                                             
C  0.00  0.00 53.47                                                             
C  0.00  4.65  8.44                                                             
C  0.00  4.65 19.70                                                             
C  0.00  4.65 30.96                                                             
C  0.00  4.65 42.21                                                             
C  0.00  4.65 53.47                                                             
C  4.03  2.32  8.44                                                             
C  4.03  2.32 19.70                                                             
C  4.03  2.32 30.96                                                             
C  4.03  2.32 42.21                                                             
C  4.03  2.32 53.47                                                             
C  8.05  0.00  8.44                                                             
C  8.05  0.00 19.70                                                             
C  8.05  0.00 30.96                                                             
C  8.05  0.00 42.21                                                             
C  8.05  0.00 53.47                                                             
C  0.00  9.30  8.44                                                             
C  0.00  9.30 19.70                                                             
C  0.00  9.30 30.96                                                             
C  0.00  9.30 42.21                                                             
C  0.00  9.30 53.47                                                             
C  4.03  6.97  8.44                                                             
C  4.03  6.97 19.70                                                             
C  4.03  6.97 30.96                                                             
C  4.03  6.97 42.21                                                             
C  4.03  6.97 53.47                                                             
C  8.05  4.65  8.44                                                             
C  8.05  4.65 19.70                                                             
C  8.05  4.65 30.96                                                             
C  8.05  4.65 42.21                                                             
C  8.05  4.65 53.47                                                             
C 12.08  2.32  8.44                                                             
C 12.08  2.32 19.70                                                             
C 12.08  2.32 30.96                                                             
C 12.08  2.32 42.21                                                             
C 12.08  2.32 53.47                                                             
C 16.10  0.00  8.44                                                             
C 16.10  0.00 19.70                                                             
C 16.10  0.00 30.96                                                             
C 16.10  0.00 42.21                                                             
C 16.10  0.00 53.47                                                             
C  0.00 13.95  8.44                                                             
C  0.00 13.95 19.70                                                             
C  0.00 13.95 30.96                                                             
C  0.00 13.95 42.21                                                             
C  0.00 13.95 53.47                                                             
C  4.03 11.62  8.44                                                             
C  4.03 11.62 19.70                                                             
C  4.03 11.62 30.96                                                             
C  4.03 11.62 42.21                                                             
C  4.03 11.62 53.47                                                             
C  8.05  9.30  8.44                                                             
C  8.05  9.30 19.70                                                             
C  8.05  9.30 30.96                                                             
C  8.05  9.30 42.21                                                             
C  8.05  9.30 53.47                                                             
C 12.08  6.97  8.44                                                             
C 12.08  6.97 19.70                                                             
C 12.08  6.97 30.96                                                             
C 12.08  6.97 42.21                                                             
C 12.08  6.97 53.47                                                             
C 16.10  4.65  8.44                                                             
C 16.10  4.65 19.70                                                             
C 16.10  4.65 30.96                                                             
C 16.10  4.65 42.21                                                             
C 16.10  4.65 53.47                                                             
C 20.13  2.32  8.44                                                             
C 20.13  2.32 19.70                                                             
C 20.13  2.32 30.96                                                             
C 20.13  2.32 42.21                                                             
C 20.13  2.32 53.47                                                             
C 24.16  0.00  8.44                                                             
C 24.16  0.00 19.70                                                             
C 24.16  0.00 30.96                                                             
C 24.16  0.00 42.21                                                             
C 24.16  0.00 53.47                                                             
C  4.03 16.27  8.44                                                             
C  4.03 16.27 19.70                                                             
C  4.03 16.27 30.96                                                             
C  4.03 16.27 42.21                                                             
C  4.03 16.27 53.47                                                             
C  8.05 13.95  8.44                                                             
C  8.05 13.95 19.70                                                             
C  8.05 13.95 30.96                                                             
C  8.05 13.95 42.21                                                             
C  8.05 13.95 53.47                                                             
C 12.08 11.62  8.44                                                             
C 12.08 11.62 19.70                                                             
C 12.08 11.62 30.96                                                             
C 12.08 11.62 42.21                                                             
C 12.08 11.62 53.47                                                             
C 16.10  9.30  8.44                                                             
C 16.10  9.30 19.70                                                             
C 16.10  9.30 30.96                                                             
C 16.10  9.30 42.21                                                             
C 16.10  9.30 53.47                                                             
C 20.13  6.97  8.44                                                             
C 20.13  6.97 19.70                                                             
C 20.13  6.97 30.96                                                             
C 20.13  6.97 42.21                                                             
C 20.13  6.97 53.47                                                             
C 24.16  4.65  8.44                                                             
C 24.16  4.65 19.70                                                             
C 24.16  4.65 30.96                                                             
C 24.16  4.65 42.21                                                             
C 24.16  4.65 53.47                                                             
C 28.18  2.32  8.44                                                             
C 28.18  2.32 19.70                                                             
C 28.18  2.32 30.96                                                             
C 28.18  2.32 42.21                                                             
C 28.18  2.32 53.47                                                             
C 12.08 16.27  8.44                                                             
C 12.08 16.27 19.70                                                             
C 12.08 16.27 30.96                                                             
C 12.08 16.27 42.21                                                             
C 12.08 16.27 53.47                                                             
C 16.10 13.95  8.44                                                             
C 16.10 13.95 19.70                                                             
C 16.10 13.95 30.96                                                             
C 16.10 13.95 42.21                                                             
C 16.10 13.95 53.47                                                             
C 20.13 11.62  8.44                                                             
C 20.13 11.62 19.70                                                             
C 20.13 11.62 30.96                                                             
C 20.13 11.62 42.21                                                             
C 20.13 11.62 53.47                                                             
C 24.16  9.30  8.44                                                             
C 24.16  9.30 19.70                                                             
C 24.16  9.30 30.96                                                             
C 24.16  9.30 42.21                                                             
C 24.16  9.30 53.47                                                             
C 28.18  6.97  8.44                                                             
C 28.18  6.97 19.70                                                             
C 28.18  6.97 30.96                                                             
C 28.18  6.97 42.21                                                             
C 28.18  6.97 53.47                                                             
C 20.13 16.27  8.44                                                             
C 20.13 16.27 19.70                                                             
C 20.13 16.27 30.96                                                             
C 20.13 16.27 42.21                                                             
C 20.13 16.27 53.47                                                             
C 24.16 13.95  8.44                                                             
C 24.16 13.95 19.70                                                             
C 24.16 13.95 30.96                                                             
C 24.16 13.95 42.21                                                             
C 24.16 13.95 53.47                                                             
C 28.18 11.62  8.44                                                             
C 28.18 11.62 19.70                                                             
C 28.18 11.62 30.96                                                             
C 28.18 11.62 42.21                                                             
C 28.18 11.62 53.47                                                             
C 28.18 16.27  8.44                                                             
C 28.18 16.27 19.70                                                             
C 28.18 16.27 30.96                                                             
C 28.18 16.27 42.21                                                             
C 28.18 16.27 53.47                                                             
C  1.34  2.32  2.81                                                             
C  1.34  2.32 14.07                                                             
C  1.34  2.32 25.33                                                             
C  1.34  2.32 36.58                                                             
C  1.34  2.32 47.84                                                             
C  5.37  0.00  2.81                                                             
C  5.37  0.00 14.07                                                             
C  5.37  0.00 25.33                                                             
C  5.37  0.00 36.58                                                             
C  5.37  0.00 47.84                                                             
C  1.34  6.97  2.81                                                             
C  1.34  6.97 14.07                                                             
C  1.34  6.97 25.33                                                             
C  1.34  6.97 36.58                                                             
C  1.34  6.97 47.84                                                             
C  5.37  4.65  2.81                                                             
C  5.37  4.65 14.07                                                             
C  5.37  4.65 25.33                                                             
C  5.37  4.65 36.58                                                             
C  5.37  4.65 47.84                                                             
C  9.39  2.32  2.81                                                             
C  9.39  2.32 14.07                                                             
C  9.39  2.32 25.33                                                             
C  9.39  2.32 36.58                                                             
C  9.39  2.32 47.84                                                             
C 13.42  0.00  2.81                                                             
C 13.42  0.00 14.07                                                             
C 13.42  0.00 25.33                                                             
C 13.42  0.00 36.58                                                             
C 13.42  0.00 47.84                                                             
C  1.34 11.62  2.81                                                             
C  1.34 11.62 14.07                                                             
C  1.34 11.62 25.33                                                             
C  1.34 11.62 36.58                                                             
C  1.34 11.62 47.84                                                             
C  5.37  9.30  2.81                                                             
C  5.37  9.30 14.07                                                             
C  5.37  9.30 25.33                                                             
C  5.37  9.30 36.58                                                             
C  5.37  9.30 47.84                                                             
C  9.39  6.97  2.81                                                             
C  9.39  6.97 14.07                                                             
C  9.39  6.97 25.33                                                             
C  9.39  6.97 36.58                                                             
C  9.39  6.97 47.84                                                             
C 13.42  4.65  2.81                                                             
C 13.42  4.65 14.07                                                             
C 13.42  4.65 25.33                                                             
C 13.42  4.65 36.58                                                             
C 13.42  4.65 47.84                                                             
C 17.45  2.32  2.81                                                             
C 17.45  2.32 14.07                                                             
C 17.45  2.32 25.33                                                             
C 17.45  2.32 36.58                                                             
C 17.45  2.32 47.84                                                             
C 21.47  0.00  2.81                                                             
C 21.47  0.00 14.07                                                             
C 21.47  0.00 25.33                                                             
C 21.47  0.00 36.58                                                             
C 21.47  0.00 47.84                                                             
C  1.34 16.27  2.81                                                             
C  1.34 16.27 14.07                                                             
C  1.34 16.27 25.33                                                             
C  1.34 16.27 36.58                                                             
C  1.34 16.27 47.84                                                             
C  5.37 13.95  2.81                                                             
C  5.37 13.95 14.07                                                             
C  5.37 13.95 25.33                                                             
C  5.37 13.95 36.58                                                             
C  5.37 13.95 47.84                                                             
C  9.39 11.62  2.81                                                             
C  9.39 11.62 14.07                                                             
C  9.39 11.62 25.33                                                             
C  9.39 11.62 36.58                                                             
C  9.39 11.62 47.84                                                             
C 13.42  9.30  2.81                                                             
C 13.42  9.30 14.07                                                             
C 13.42  9.30 25.33                                                             
C 13.42  9.30 36.58                                                             
C 13.42  9.30 47.84                                                             
C 17.45  6.97  2.81                                                             
C 17.45  6.97 14.07                                                             
C 17.45  6.97 25.33                                                             
C 17.45  6.97 36.58                                                             
C 17.45  6.97 47.84                                                             
C 21.47  4.65  2.81                                                             
C 21.47  4.65 14.07                                                             
C 21.47  4.65 25.33                                                             
C 21.47  4.65 36.58                                                             
C 21.47  4.65 47.84                                                             
C 25.50  2.32  2.81                                                             
C 25.50  2.32 14.07                                                             
C 25.50  2.32 25.33                                                             
C 25.50  2.32 36.58                                                             
C 25.50  2.32 47.84                                                             
C 29.52  0.00  2.81                                                             
C 29.52  0.00 14.07                                                             
C 29.52  0.00 25.33                                                             
C 29.52  0.00 36.58                                                             
C 29.52  0.00 47.84                                                             
C  9.39 16.27  2.81                                                             
C  9.39 16.27 14.07                                                             
C  9.39 16.27 25.33                                                             
C  9.39 16.27 36.58                                                             
C  9.39 16.27 47.84                                                             
C 13.42 13.95  2.81                                                             
C 13.42 13.95 14.07                                                             
C 13.42 13.95 25.33                                                             
C 13.42 13.95 36.58                                                             
C 13.42 13.95 47.84                                                             
C 17.45 11.62  2.81                                                             
C 17.45 11.62 14.07                                                             
C 17.45 11.62 25.33                                                             
C 17.45 11.62 36.58                                                             
C 17.45 11.62 47.84                                                             
C 21.47  9.30  2.81                                                             
C 21.47  9.30 14.07                                                             
C 21.47  9.30 25.33                                                             
C 21.47  9.30 36.58                                                             
C 21.47  9.30 47.84                                                             
C 25.50  6.97  2.81                                                             
C 25.50  6.97 14.07                                                             
C 25.50  6.97 25.33                                                             
C 25.50  6.97 36.58                                                             
C 25.50  6.97 47.84                                                             
C 29.52  4.65  2.81                                                             
C 29.52  4.65 14.07                                                             
C 29.52  4.65 25.33                                                             
C 29.52  4.65 36.58                                                             
C 29.52  4.65 47.84                                                             
C 17.45 16.27  2.81                                                             
C 17.45 16.27 14.07                                                             
C 17.45 16.27 25.33                                                             
C 17.45 16.27 36.58                                                             
C 17.45 16.27 47.84                                                             
C 21.47 13.95  2.81                                                             
C 21.47 13.95 14.07                                                             
C 21.47 13.95 25.33                                                             
C 21.47 13.95 36.58                                                             
C 21.47 13.95 47.84                                                             
C 25.50 11.62  2.81                                                             
C 25.50 11.62 14.07                                                             
C 25.50 11.62 25.33                                                             
C 25.50 11.62 36.58                                                             
C 25.50 11.62 47.84                                                             
C 29.52  9.30  2.81                                                             
C 29.52  9.30 14.07                                                             
C 29.52  9.30 25.33                                                             
C 29.52  9.30 36.58                                                             
C 29.52  9.30 47.84                                                             
C 25.50 16.27  2.81                                                             
C 25.50 16.27 14.07                                                             
C 25.50 16.27 25.33                                                             
C 25.50 16.27 36.58                                                             
C 25.50 16.27 47.84                                                             
C 29.52 13.95  2.81                                                             
C 29.52 13.95 14.07                                                             
C 29.52 13.95 25.33                                                             
C 29.52 13.95 36.58                                                             
C 29.52 13.95 47.84                                                             
C  2.68  0.00  8.44                                                             
C  2.68  0.00 19.70                                                             
C  2.68  0.00 30.96                                                             
C  2.68  0.00 42.21                                                             
C  2.68  0.00 53.47                                                             
C  2.68  4.65  8.44                                                             
C  2.68  4.65 19.70                                                             
C  2.68  4.65 30.96                                                             
C  2.68  4.65 42.21                                                             
C  2.68  4.65 53.47                                                             
C  6.71  2.32  8.44                                                             
C  6.71  2.32 19.70                                                             
C  6.71  2.32 30.96                                                             
C  6.71  2.32 42.21                                                             
C  6.71  2.32 53.47                                                             
C 10.74  0.00  8.44                                                             
C 10.74  0.00 19.70                                                             
C 10.74  0.00 30.96                                                             
C 10.74  0.00 42.21                                                             
C 10.74  0.00 53.47                                                             
C  2.68  9.30  8.44                                                             
C  2.68  9.30 19.70                                                             
C  2.68  9.30 30.96                                                             
C  2.68  9.30 42.21                                                             
C  2.68  9.30 53.47                                                             
C  6.71  6.97  8.44                                                             
C  6.71  6.97 19.70                                                             
C  6.71  6.97 30.96                                                             
C  6.71  6.97 42.21                                                             
C  6.71  6.97 53.47                                                             
C 10.74  4.65  8.44                                                             
C 10.74  4.65 19.70                                                             
C 10.74  4.65 30.96                                                             
C 10.74  4.65 42.21                                                             
C 10.74  4.65 53.47                                                             
C 14.76  2.32  8.44                                                             
C 14.76  2.32 19.70                                                             
C 14.76  2.32 30.96                                                             
C 14.76  2.32 42.21                                                             
C 14.76  2.32 53.47                                                             
C 18.79  0.00  8.44                                                             
C 18.79  0.00 19.70                                                             
C 18.79  0.00 30.96                                                             
C 18.79  0.00 42.21                                                             
C 18.79  0.00 53.47                                                             
C  2.68 13.95  8.44                                                             
C  2.68 13.95 19.70                                                             
C  2.68 13.95 30.96                                                             
C  2.68 13.95 42.21                                                             
C  2.68 13.95 53.47                                                             
C  6.71 11.62  8.44                                                             
C  6.71 11.62 19.70                                                             
C  6.71 11.62 30.96                                                             
C  6.71 11.62 42.21                                                             
C  6.71 11.62 53.47                                                             
C 10.74  9.30  8.44                                                             
C 10.74  9.30 19.70                                                             
C 10.74  9.30 30.96                                                             
C 10.74  9.30 42.21                                                             
C 10.74  9.30 53.47                                                             
C 14.76  6.97  8.44                                                             
C 14.76  6.97 19.70                                                             
C 14.76  6.97 30.96                                                             
C 14.76  6.97 42.21                                                             
C 14.76  6.97 53.47                                                             
C 18.79  4.65  8.44                                                             
C 18.79  4.65 19.70                                                             
C 18.79  4.65 30.96                                                             
C 18.79  4.65 42.21                                                             
C 18.79  4.65 53.47                                                             
C 22.81  2.32  8.44                                                             
C 22.81  2.32 19.70                                                             
C 22.81  2.32 30.96                                                             
C 22.81  2.32 42.21                                                             
C 22.81  2.32 53.47                                                             
C 26.84  0.00  8.44                                                             
C 26.84  0.00 19.70                                                             
C 26.84  0.00 30.96                                                             
C 26.84  0.00 42.21                                                             
C 26.84  0.00 53.47                                                             
C  6.71 16.27  8.44                                                             
C  6.71 16.27 19.70                                                             
C  6.71 16.27 30.96                                                             
C  6.71 16.27 42.21                                                             
C  6.71 16.27 53.47                                                             
C 10.74 13.95  8.44                                                             
C 10.74 13.95 19.70                                                             
C 10.74 13.95 30.96                                                             
C 10.74 13.95 42.21                                                             
C 10.74 13.95 53.47                                                             
C 14.76 11.62  8.44                                                             
C 14.76 11.62 19.70                                                             
C 14.76 11.62 30.96                                                             
C 14.76 11.62 42.21                                                             
C 14.76 11.62 53.47                                                             
C 18.79  9.30  8.44                                                             
C 18.79  9.30 19.70                                                             
C 18.79  9.30 30.96                                                             
C 18.79  9.30 42.21                                                             
C 18.79  9.30 53.47                                                             
C 22.81  6.97  8.44                                                             
C 22.81  6.97 19.70                                                             
C 22.81  6.97 30.96                                                             
C 22.81  6.97 42.21                                                             
C 22.81  6.97 53.47                                                             
C 26.84  4.65  8.44                                                             
C 26.84  4.65 19.70                                                             
C 26.84  4.65 30.96                                                             
C 26.84  4.65 42.21                                                             
C 26.84  4.65 53.47                                                             
C 30.86  2.32  8.44                                                             
C 30.86  2.32 19.70                                                             
C 30.86  2.32 30.96                                                             
C 30.86  2.32 42.21                                                             
C 30.86  2.32 53.47                                                             
C 14.76 16.27  8.44                                                             
C 14.76 16.27 19.70                                                             
C 14.76 16.27 30.96                                                             
C 14.76 16.27 42.21                                                             
C 14.76 16.27 53.47                                                             
C 18.79 13.95  8.44                                                             
C 18.79 13.95 19.70                                                             
C 18.79 13.95 30.96                                                             
C 18.79 13.95 42.21                                                             
C 18.79 13.95 53.47                                                             
C 22.81 11.62  8.44                                                             
C 22.81 11.62 19.70                                                             
C 22.81 11.62 30.96                                                             
C 22.81 11.62 42.21                                                             
C 22.81 11.62 53.47                                                             
C 26.84  9.30  8.44                                                             
C 26.84  9.30 19.70                                                             
C 26.84  9.30 30.96                                                             
C 26.84  9.30 42.21                                                             
C 26.84  9.30 53.47                                                             
C 30.86  6.97  8.44                                                             
C 30.86  6.97 19.70                                                             
C 30.86  6.97 30.96                                                             
C 30.86  6.97 42.21                                                             
C 30.86  6.97 53.47                                                             
C 22.81 16.27  8.44                                                             
C 22.81 16.27 19.70                                                             
C 22.81 16.27 30.96                                                             
C 22.81 16.27 42.21                                                             
C 22.81 16.27 53.47                                                             
C 26.84 13.95  8.44                                                             
C 26.84 13.95 19.70                                                             
C 26.84 13.95 30.96                                                             
C 26.84 13.95 42.21                                                             
C 26.84 13.95 53.47                                                             
C 30.86 11.62  8.44                                                             
C 30.86 11.62 19.70                                                             
C 30.86 11.62 30.96                                                             
C 30.86 11.62 42.21                                                             
C 30.86 11.62 53.47                                                             
C 30.86 16.27  8.44                                                             
C 30.86 16.27 19.70                                                             
C 30.86 16.27 30.96                                                             
C 30.86 16.27 42.21                                                             
C 30.86 16.27 53.47                                                             
%ENDBLOCK POSITIONS_ABS                                                         

--------------------------------------------------------------------------------
-------------------------------- END INPUT FILE --------------------------------
--------------------------------------------------------------------------------


 
<<<<<<<<<<<<<<<<<<<<<<<<<<<<<<<<< Full system >>>>>>>>>>>>>>>>>>>>>>>>>>>>>>>>>>
<<<<<<<<<<<<<<<<<<<<<<<<<<< PAW Dataset information >>>>>>>>>>>>>>>>>>>>>>>>>>>
File: ~/pp/paw/c_pbe_abinit.paw; rc = 1.25 bohr; shape type =  3; rshape = 1.25 bohr;
  Atomic number:  6;  ionic charge:  4.000000
    Partial Wave 1: l = 0
    Partial Wave 2: l = 0
    Partial Wave 3: l = 1
    Partial Wave 4: l = 1
  Core charge supplied for Nonlinear Core Corrections
<<<<<<<<<<<<<<<<<<<<<<<<<<<<<<<<<<<<<<< >>>>>>>>>>>>>>>>>>>>>>>>>>>>>>>>>>>>>>>

-------------------------- Atom counting information ---------------------------
Symbol    Natoms    Nngwfs    Nprojs
  C        640      2560      5120
.......   ......    ......    ......
Totals:    640      2560      5120
--------------------------------------------------------------------------------

=============================== PSINC grid sizes ===============================
                      Simulation cell:   63 x  35 x 111
                              FFT-box:   63 x  35 x 111
                                  PPD:    7 x   5 x   1
Grid space d1=  0.511269841270a0 (KE cutoff=  29.06054Eh = 790.77748eV)
Grid space d2=  0.531142857143a0 (KE cutoff=  26.92659Eh = 732.70972eV)
Grid space d3=  0.507027027027a0 (KE cutoff=  29.54893Eh = 804.06734eV)
================================================================================
  
WARNING in cell_grid_distribute:
Average of less than one 23-slab per node, so workload cannot be
equally balanced between nodes.

********************* Fourier parallelisation information **********************
       Coarse grid (whole simulation cell) dimensions:     63    35   111
          Real-space ('12') slabs/node (min max mean):      2     3     2
         Recip-space ('23') slabs/node (min max mean):      0     1     0
********************************************************************************

********************* Fourier parallelisation information **********************
       Double grid (whole simulation cell) dimensions:    126    70   222
          Real-space ('12') slabs/node (min max mean):      5     6     5
         Recip-space ('23') slabs/node (min max mean):      1     2     1
********************************************************************************

Atom SCF Calculation for C  : Z (AE atom) =   6 : Z (PS atom) =   4
Config String: 2s2 2p2
Orbitals (num,occ):  2     2.00 2.00
Orbitals   (num,l):  2        0    1
Real-space Grid (nr,dr,rmax): 1293    0.0069659443    9.0000000000
Spherical Bessel Basis (nsws,lmax,cutoff):   37    2  161.4736382572
Confining potential (l,width,scale):  0    3.0000000000  100.0000000000
Confining potential (l,width,scale):  1    3.0000000000  100.0000000000
  1         -5.4795203654   -1.3252209296    4.5135257941   -1.6370402169
  2         -5.4480859746   -1.4027979239    4.4305951748   -1.6109819005
  3         -5.4553164790   -1.4212834043    4.4102618304   -1.6059039466
  4         -5.4627841133   -1.4247091338    4.4065122085   -1.6052907585
  5         -5.4662306655   -1.4266814823    4.4043715292   -1.6049352647
  6         -5.4679520247   -1.4277352742    4.4032348712   -1.6047493439
  7         -5.4688359568   -1.4282868030    4.4026432892   -1.6046541449
  8         -5.4692951245   -1.4285734530    4.4023374832   -1.6046056242
  9         -5.4695349887   -1.4287220785    4.4021797781   -1.6045809101
 10         -5.4696606791   -1.4287991022    4.4020984905   -1.6045683155
 11         -5.4697266650   -1.4288390363    4.4020565747   -1.6045618912
 12         -5.4697613504   -1.4288597596    4.4020349416   -1.6045586107
 13         -5.4697795998   -1.4288705262    4.4020237638   -1.6045569335
 14         -5.4697892089   -1.4288761271    4.4020179806   -1.6045560749
 15         -5.4697942720   -1.4288790448    4.4020149844   -1.6045556348
 16         -5.4697969415   -1.4288805668    4.4020134298   -1.6045554088
 17         -5.4697983498   -1.4288813619    4.4020126220   -1.6045552927
 18         -5.4697990933   -1.4288817779    4.4020122017   -1.6045552329
 19         -5.4697994860   -1.4288819957    4.4020119826   -1.6045552021
 20         -5.4697996936   -1.4288821100    4.4020118683   -1.6045551862
 21         -5.4697998034   -1.4288821701    4.4020118085   -1.6045551780
 22         -5.4697998614   -1.4288822017    4.4020117772   -1.6045551737
Atom SCF converged after  22 iterations to a total energy of     -5.46979986

Determining parallel strategy ...
... using space-filling curve
... NGWF load balancing: max     64;  min     64;  average     64
... Projector load balancing: max    128;  min    128;  average    128
... done
Calculating Ewald energy ...
              Ewald: real-space energy =    9587.663868
        Ewald: reciprocal-space energy =       0.020809
         Ewald: (sum_charge)**2 Energy =   11771.953624
         Ewald: (sum_charge**2) Energy =     930.654649
                          Ewald Energy =   -3114.923596
Basis initialisation ...... NGWF spheres initialised
... Projector spheres initialised
... NGWF tight boxes initialised
... Projector tight boxes initialised
... Tight-boxes gathered
... NGWF basis size (local,global):     695476  27897184
... PAW projector initialisation
... done

============================= Charge Augmentation ==============================
                           Aug box size:   11 x  11 x  11
================================================================================

========================== Sparse matrix information ===========================
                        Overlap matrix filling:  49.84%
                        Density kernel filling: 100.00%
              NGWF-Proj overlap matrix filling:  13.12%
                    Aug Overlap matrix filling:  51.72%
                    Hamiltonian matrix filling:  51.72%
                  NGWF diagonal matrix filling:   0.16%
                             KS matrix filling: 100.00% 
                           KSKS matrix filling: 100.00% 
================================================================================

Sparse matrix initialisation ... done
NGWF initialisation ...... done
============ Calculation of NGWF S^-1 using Hotelling algorithm ================ 
         Iteration  |  Frobenius norm and Maximum abs value    (of I-S*S_n^-1)   
               1       0.49379222E+02     0.98004608E+00
               2       0.48377033E+02     0.96182528E+00
               3       0.46819333E+02     0.92959466E+00
               4       0.44710977E+02     0.87715540E+00
               5       0.42107734E+02     0.79938208E+00
               6       0.38958695E+02     0.70446321E+00
               7       0.35435254E+02     0.65111579E+00
               8       0.31983387E+02     0.60670264E+00
               9       0.28563095E+02     0.56572226E+00
              10       0.24502331E+02     0.50913402E+00
              11       0.19198727E+02     0.41700337E+00
              12       0.12648724E+02     0.28388735E+00
              13       0.61277430E+01     0.13738070E+00
              14       0.17015461E+01     0.35767103E-01
              15       0.15805376E+00     0.29218158E-02
              16       0.17030320E-02     0.24877086E-04
              17       0.29173791E-06     0.26877336E-08
              18       0.91511756E-13     0.46629367E-14
================================================================================
Calculating core density ...
================================= Core Density =================================
               Core den box size:   21 x  21 x  21
================================================================================
 ... done
Up spin density kernel initialisation ...... done

Writing density kernel to file "2.9783632_GO_manual_4x64graphite.dkn" ... done

>>> Optimising kernel for current NGWFs:

--------------------------- Ensemble-DFT optimisation --------------------------
Running ScaLAPACK on   40 processor(s).

--------------------------------------------------------------------------------
  Iter                              Commutator    Free_energy(A=E-TS)     DeltaA
#    0                          0.000073482602   -3653.41839095957357  -3.65E+03

Step                       =       0.381966011250
Energy                     =   -3653.418343599964
Entropy (-TS)              =      -0.000047359267
Free energy (A=E-TS)       =   -3653.418390959574
Est. 0K Energy 0.5*(E+A)   =   -3653.418367279769
Residual Non-orthogonality =       0.000000000000
Residual N_electrons       =      -0.000000000342

Spin          Integrated_Ne            Fermi_level     Delta_Fermi_level
   1      2560.000000001246         0.274572096528              2.75E-01

                           Spin 1          
     Orb      H-eigenvalues     Occupancies
       1 |    -0.4535417092    1.0000000000 | 
                          ------
    1276 |     0.2426197913    0.9999584985 | 
    1277 |     0.2430643931    0.9999522434 | 
    1278 |     0.2431987539    0.9999501737 | 
    1279 |     0.2432134166    0.9999499425 | 
    1280 |     0.2436341996    0.9999428295 | 
                 - Gap at zero temperature -
    1281 |     0.3072174878    0.0000333440 | 
    1282 |     0.3072523554    0.0000329789 | 
    1283 |     0.3074521503    0.0000309626 | 
    1284 |     0.3074538022    0.0000309464 | 
    1285 |     0.3074870000    0.0000306237 | 
                          ------
    2560 |     1.1097673781    0.0000000000 | 

                       |  Abs_value |  Threshold | Converged
     Delta_Free_energy |   3.65E+03 |   1.00E-06 |        No
     Delta_Energy      |   3.65E+03 |   1.00E-04 |        No
     Delta_Entropy     |   4.74E-05 |   1.00E-04 |       Yes
     Commutator        |   7.35E-05 |   1.00E-05 |        No
     Delta_Fermi_level |   2.75E-01 |   1.00E-03 |        No

  Line search of the free energy minimum:
  Step_type        Step             Free_energy   Predicted_free_energy
.   Initial    0.000000    -3653.41839095957357
.    Trial1    0.381966    -3653.42378994058436
.    Trial2    0.618034    -3653.42223003878144
. Quadratic    0.401558    -3653.42380179958946    -3653.42380282339991

--------------------------------------------------------------------------------
  Iter                              Commutator    Free_energy(A=E-TS)     DeltaA
#    1                          0.000026078864   -3653.42380179958946  -5.41E-03

Step                       =       0.401558081929
Energy                     =   -3653.423755989161
Entropy (-TS)              =      -0.000045809806
Free energy (A=E-TS)       =   -3653.423801799589
Est. 0K Energy 0.5*(E+A)   =   -3653.423778894375
Residual Non-orthogonality =       0.000000000000
Residual N_electrons       =      -0.000000000623

Spin          Integrated_Ne            Fermi_level     Delta_Fermi_level
   1      2560.000000002241         0.278030865012              3.46E-03

                           Spin 1          
     Orb      H-eigenvalues     Occupancies
       1 |    -0.4508586235    1.0000000000 | 
                          ------
    1276 |     0.2460518839    0.9999588466 | 
    1277 |     0.2464919224    0.9999527122 | 
    1278 |     0.2465103705    0.9999524359 | 
    1279 |     0.2465298849    0.9999521419 | 
    1280 |     0.2469654114    0.9999450864 | 
                 - Gap at zero temperature -
    1281 |     0.3107984485    0.0000320819 | 
    1282 |     0.3108604573    0.0000314599 | 
    1283 |     0.3110144481    0.0000299667 | 
    1284 |     0.3110467210    0.0000296629 | 
    1285 |     0.3111215830    0.0000289699 | 
                          ------
    2560 |     1.1162184336    0.0000000000 | 

                       |  Abs_value |  Threshold | Converged
     Delta_Free_energy |   5.41E-03 |   1.00E-06 |        No
     Delta_Energy      |   5.41E-03 |   1.00E-04 |        No
     Delta_Entropy     |   1.55E-06 |   1.00E-04 |       Yes
     Commutator        |   2.61E-05 |   1.00E-05 |        No
     Delta_Fermi_level |   3.46E-03 |   1.00E-03 |        No

  Line search of the free energy minimum:
  Step_type        Step             Free_energy   Predicted_free_energy
.   Initial    0.000000    -3653.42380179958946
.    Trial1    0.401558    -3653.42436738171182
.    Trial2    0.630143    -3653.42382573305031
. Quadratic    0.318239    -3653.42440959704936    -3653.42440900347083

--------------------------------------------------------------------------------
  Iter                              Commutator    Free_energy(A=E-TS)     DeltaA
#    2                          0.000019344685   -3653.42440959704936  -6.08E-04

Step                       =       0.318238715631
Energy                     =   -3653.424364869951
Entropy (-TS)              =      -0.000044727549
Free energy (A=E-TS)       =   -3653.424409597049
Est. 0K Energy 0.5*(E+A)   =   -3653.424387233500
Residual Non-orthogonality =       0.000000000000
Residual N_electrons       =       0.000000000450

Spin          Integrated_Ne            Fermi_level     Delta_Fermi_level
   1      2559.999999998390         0.279526994512              1.50E-03

                           Spin 1          
     Orb      H-eigenvalues     Occupancies
       1 |    -0.4495941193    1.0000000000 | 
                          ------
    1276 |     0.2474570322    0.9999600121 | 
    1277 |     0.2478944582    0.9999540893 | 
    1278 |     0.2479194025    0.9999537262 | 
    1279 |     0.2479591355    0.9999531420 | 
    1280 |     0.2483734203    0.9999465933 | 
                 - Gap at zero temperature -
    1281 |     0.3123773640    0.0000312542 | 
    1282 |     0.3124412751    0.0000306297 | 
    1283 |     0.3126029185    0.0000291056 | 
    1284 |     0.3126384846    0.0000287805 | 
    1285 |     0.3126980172    0.0000282446 | 
                          ------
    2560 |     1.1192442604    0.0000000000 | 

                       |  Abs_value |  Threshold | Converged
     Delta_Free_energy |   6.08E-04 |   1.00E-06 |        No
     Delta_Energy      |   6.09E-04 |   1.00E-04 |        No
     Delta_Entropy     |   1.08E-06 |   1.00E-04 |       Yes
     Commutator        |   1.93E-05 |   1.00E-05 |        No
     Delta_Fermi_level |   1.50E-03 |   1.00E-03 |        No

  Line search of the free energy minimum:
  Step_type        Step             Free_energy   Predicted_free_energy
.   Initial    0.000000    -3653.42440959704936
.    Trial1    0.318239    -3653.42461880396786
.    Trial2    0.578648    -3653.42389619543246
. Quadratic    0.214534    -3653.42468293518732    -3653.42468259576845

--------------------------------------------------------------------------------
  Iter                              Commutator    Free_energy(A=E-TS)     DeltaA
#    3                          0.000013403081   -3653.42468293518732  -2.73E-04

Step                       =       0.214534040124
Energy                     =   -3653.424638679582
Entropy (-TS)              =      -0.000044256291
Free energy (A=E-TS)       =   -3653.424682935187
Est. 0K Energy 0.5*(E+A)   =   -3653.424660807384
Residual Non-orthogonality =       0.000000000000
Residual N_electrons       =       0.000000000686

Spin          Integrated_Ne            Fermi_level     Delta_Fermi_level
   1      2559.999999997552         0.280218969970              6.92E-04

                           Spin 1          
     Orb      H-eigenvalues     Occupancies
       1 |    -0.4490099875    1.0000000000 | 
                          ------
    1276 |     0.2481129094    0.9999604653 | 
    1277 |     0.2485436065    0.9999547059 | 
    1278 |     0.2485778140    0.9999542140 | 
    1279 |     0.2486173147    0.9999536394 | 
    1280 |     0.2490248581    0.9999472726 | 
                 - Gap at zero temperature -
    1281 |     0.3131052279    0.0000309020 | 
    1282 |     0.3131689469    0.0000302864 | 
    1283 |     0.3133308678    0.0000287768 | 
    1284 |     0.3133657329    0.0000284618 | 
    1285 |     0.3134252035    0.0000279323 | 
                          ------
    2560 |     1.1206394654    0.0000000000 | 

                       |  Abs_value |  Threshold | Converged
     Delta_Free_energy |   2.73E-04 |   1.00E-06 |        No
     Delta_Energy      |   2.74E-04 |   1.00E-04 |        No
     Delta_Entropy     |   4.71E-07 |   1.00E-04 |       Yes
     Commutator        |   1.34E-05 |   1.00E-05 |        No
     Delta_Fermi_level |   6.92E-04 |   1.00E-03 |       Yes

  Line search of the free energy minimum:
  Step_type        Step             Free_energy   Predicted_free_energy
.   Initial    0.000000    -3653.42468293518732
.    Trial1    0.214534    -3653.42481295989546
.    Trial2    0.514555    -3653.42471620143351
. Quadratic    0.275190    -3653.42481956453321    -3653.42481959941324

--------------------------------------------------------------------------------
[...]
 C    77 -- C   237       -0.04      5.63000
 C    38 -- C   197       -0.04      5.63000
 C    37 -- C   197       -0.04      5.63000
 C     2 -- C   162       -0.04      5.63000
 C    18 -- C   177       -0.04      5.63000
 C    17 -- C   177       -0.04      5.63000
 C   158 -- C   317       -0.04      5.63000
 C   157 -- C   317       -0.04      5.63000
 C    73 -- C   232       -0.04      5.63000
 C    72 -- C   232       -0.04      5.63000
 C   153 -- C   312       -0.04      5.63000
 C   152 -- C   312       -0.04      5.63000
 C   148 -- C   307       -0.04      5.63000
 C   147 -- C   307       -0.04      5.63000
 C    68 -- C   227       -0.04      5.63000
 C    67 -- C   227       -0.04      5.63000
 C    33 -- C   192       -0.04      5.63000
 C    32 -- C   192       -0.04      5.63000
 C   143 -- C   302       -0.04      5.63000
 C   142 -- C   302       -0.04      5.63000
 C     8 -- C   167       -0.04      5.63000
 C   138 -- C   297       -0.04      5.63000
 C   137 -- C   297       -0.04      5.63000
 C     7 -- C   167       -0.04      5.63000
 C    63 -- C   222       -0.04      5.63000
 C    62 -- C   222       -0.04      5.63000
 C   133 -- C   292       -0.04      5.63000
 C   132 -- C   292       -0.04      5.63000
 C   128 -- C   287       -0.04      5.63000
 C   127 -- C   287       -0.04      5.63000
 C   123 -- C   282       -0.04      5.63000
 C    58 -- C   217       -0.04      5.63000
 C   122 -- C   282       -0.04      5.63000
 C    57 -- C   217       -0.04      5.63000
 C    28 -- C   187       -0.04      5.63000
 C    27 -- C   187       -0.04      5.63000
 C   118 -- C   277       -0.04      5.63000
 C   117 -- C   277       -0.04      5.63000
 C   113 -- C   272       -0.04      5.63000
 C   112 -- C   272       -0.04      5.63000
 C    53 -- C   212       -0.04      5.63000
 C    52 -- C   212       -0.04      5.63000
 C    13 -- C   172       -0.04      5.63000
 C    12 -- C   172       -0.04      5.63000
 C   108 -- C   267       -0.04      5.63000
 C   107 -- C   267       -0.04      5.63000
 C   103 -- C   262       -0.04      5.63000
 C   102 -- C   262       -0.04      5.63000
 C    48 -- C   207       -0.04      5.63000
 C    47 -- C   207       -0.04      5.63000
 C    23 -- C   182       -0.04      5.63000
 C    22 -- C   182       -0.04      5.63000
 C    98 -- C   257       -0.04      5.63000
 C    97 -- C   257       -0.04      5.63000
 C    93 -- C   252       -0.04      5.63000
 C    92 -- C   252       -0.04      5.63000
 C    43 -- C   202       -0.04      5.63000
 C    42 -- C   202       -0.04      5.63000
 C    88 -- C   247       -0.04      5.63000
 C    87 -- C   247       -0.04      5.63000
 C    86 -- C   246       -0.04      5.63000
 C    41 -- C   201       -0.04      5.63000
 C    81 -- C   241       -0.04      5.63000
 C     1 -- C   161       -0.04      5.63000
 C    76 -- C   236       -0.04      5.63000
 C    36 -- C   196       -0.04      5.63000
 C   156 -- C   316       -0.04      5.63000
 C    71 -- C   231       -0.04      5.63000
 C   151 -- C   311       -0.04      5.63000
 C    16 -- C   176       -0.04      5.63000
 C   146 -- C   306       -0.04      5.63000
 C    66 -- C   226       -0.04      5.63000
 C   141 -- C   301       -0.04      5.63000
 C    31 -- C   191       -0.04      5.63000
 C   136 -- C   296       -0.04      5.63000
 C   131 -- C   291       -0.04      5.63000
 C    61 -- C   221       -0.04      5.63000
 C   126 -- C   286       -0.04      5.63000
 C   121 -- C   281       -0.04      5.63000
 C    56 -- C   216       -0.04      5.63000
 C    26 -- C   186       -0.04      5.63000
 C   116 -- C   276       -0.04      5.63000
 C     6 -- C   166       -0.04      5.63000
 C   111 -- C   271       -0.04      5.63000
 C    51 -- C   211       -0.04      5.63000
 C   106 -- C   266       -0.04      5.63000
 C   101 -- C   261       -0.04      5.63000
 C    11 -- C   171       -0.04      5.63000
 C    46 -- C   206       -0.04      5.63000
 C    96 -- C   256       -0.04      5.63000
 C    21 -- C   181       -0.04      5.63000
 C    91 -- C   251       -0.04      5.63000
 C    87 -- C   246       -0.04      5.63000
 C    42 -- C   201       -0.04      5.63000
 C    82 -- C   241       -0.04      5.63000
 C     2 -- C   161       -0.04      5.63000
 C    77 -- C   236       -0.04      5.63000
 C    37 -- C   196       -0.04      5.63000
 C   157 -- C   316       -0.04      5.63000
 C    72 -- C   231       -0.04      5.63000
 C   152 -- C   311       -0.04      5.63000
 C    17 -- C   176       -0.04      5.63000
 C   147 -- C   306       -0.04      5.63000
 C    67 -- C   226       -0.04      5.63000
 C   142 -- C   301       -0.04      5.63000
 C    32 -- C   191       -0.04      5.63000
 C   137 -- C   296       -0.04      5.63000
 C   132 -- C   291       -0.04      5.63000
 C    62 -- C   221       -0.04      5.63000
 C   127 -- C   286       -0.04      5.63000
 C   122 -- C   281       -0.04      5.63000
 C    57 -- C   216       -0.04      5.63000
 C    27 -- C   186       -0.04      5.63000
 C     7 -- C   166       -0.04      5.63000
 C   117 -- C   276       -0.04      5.63000
 C   112 -- C   271       -0.04      5.63000
 C    52 -- C   211       -0.04      5.63000
 C   107 -- C   266       -0.04      5.63000
 C    12 -- C   171       -0.04      5.63000
 C   102 -- C   261       -0.04      5.63000
 C    47 -- C   206       -0.04      5.63000
 C    97 -- C   256       -0.04      5.63000
 C    22 -- C   181       -0.04      5.63000
 C    92 -- C   251       -0.04      5.63000
 C    85 -- C   244       -0.04      5.63000
 C    84 -- C   244       -0.04      5.63000
 C    20 -- C   179       -0.04      5.63000
 C    19 -- C   179       -0.04      5.63000
 C    83 -- C   243       -0.04      5.63000
 C    10 -- C   169       -0.04      5.63000
 C     9 -- C   169       -0.04      5.63000
 C    40 -- C   199       -0.04      5.63000
 C    39 -- C   199       -0.04      5.63000
 C    80 -- C   239       -0.04      5.63000
 C    79 -- C   239       -0.04      5.63000
 C    78 -- C   238       -0.04      5.63000
 C    18 -- C   178       -0.04      5.63000
 C    38 -- C   198       -0.04      5.63000
 C     5 -- C   164       -0.04      5.63000
 C     4 -- C   164       -0.04      5.63000
 C    75 -- C   234       -0.04      5.63000
 C    74 -- C   234       -0.04      5.63000
 C   160 -- C   319       -0.04      5.63000
 C   159 -- C   319       -0.04      5.63000
 C    73 -- C   233       -0.04      5.63000
 C   158 -- C   318       -0.04      5.63000
 C   155 -- C   314       -0.04      5.63000
 C   154 -- C   314       -0.04      5.63000
 C    35 -- C   194       -0.04      5.63000
 C   153 -- C   313       -0.04      5.63000
 C    34 -- C   194       -0.04      5.63000
 C   150 -- C   309       -0.04      5.63000
 C   149 -- C   309       -0.04      5.63000
 C    70 -- C   229       -0.04      5.63000
 C    69 -- C   229       -0.04      5.63000
 C   148 -- C   308       -0.04      5.63000
 C     8 -- C   168       -0.04      5.63000
 C    33 -- C   193       -0.04      5.63000
 C    68 -- C   228       -0.04      5.63000
 C   145 -- C   304       -0.04      5.63000
 C   144 -- C   304       -0.04      5.63000
 C   143 -- C   303       -0.04      5.63000
 C   140 -- C   299       -0.04      5.63000
 C   139 -- C   299       -0.04      5.63000
 C   138 -- C   298       -0.04      5.63000
 C    65 -- C   224       -0.04      5.63000
 C    64 -- C   224       -0.04      5.63000
 C   135 -- C   294       -0.04      5.63000
 C   134 -- C   294       -0.04      5.63000
 C    63 -- C   223       -0.04      5.63000
 C   133 -- C   293       -0.04      5.63000
 C    30 -- C   189       -0.04      5.63000
 C    29 -- C   189       -0.04      5.63000
 C    15 -- C   174       -0.04      5.63000
 C   130 -- C   289       -0.04      5.63000
 C   129 -- C   289       -0.04      5.63000
 C    14 -- C   174       -0.04      5.63000
 C   128 -- C   288       -0.04      5.63000
 C    60 -- C   219       -0.04      5.63000
 C    59 -- C   219       -0.04      5.63000
 C   125 -- C   284       -0.04      5.63000
 C   124 -- C   284       -0.04      5.63000
 C    28 -- C   188       -0.04      5.63000
 C    58 -- C   218       -0.04      5.63000
 C   123 -- C   283       -0.04      5.63000
 C   120 -- C   279       -0.04      5.63000
 C   119 -- C   279       -0.04      5.63000
 C   118 -- C   278       -0.04      5.63000
 C    55 -- C   214       -0.04      5.63000
 C    54 -- C   214       -0.04      5.63000
 C   115 -- C   274       -0.04      5.63000
 C   114 -- C   274       -0.04      5.63000
 C   113 -- C   273       -0.04      5.63000
 C    13 -- C   173       -0.04      5.63000
 C    53 -- C   213       -0.04      5.63000
 C     3 -- C   163       -0.04      5.63000
 C   110 -- C   269       -0.04      5.63000
 C   109 -- C   269       -0.04      5.63000
 C    25 -- C   184       -0.04      5.63000
 C   108 -- C   268       -0.04      5.63000
 C    24 -- C   184       -0.04      5.63000
 C    50 -- C   209       -0.04      5.63000
 C    49 -- C   209       -0.04      5.63000
 C   105 -- C   264       -0.04      5.63000
 C   104 -- C   264       -0.04      5.63000
 C   103 -- C   263       -0.04      5.63000
 C    48 -- C   208       -0.04      5.63000
 C    23 -- C   183       -0.04      5.63000
 C   100 -- C   259       -0.04      5.63000
 C    99 -- C   259       -0.04      5.63000
 C    98 -- C   258       -0.04      5.63000
 C    95 -- C   254       -0.04      5.63000
 C    94 -- C   254       -0.04      5.63000
 C    45 -- C   204       -0.04      5.63000
 C    44 -- C   204       -0.04      5.63000
 C    93 -- C   253       -0.04      5.63000
 C    43 -- C   203       -0.04      5.63000
 C    90 -- C   249       -0.04      5.63000
 C    89 -- C   249       -0.04      5.63000
 C    88 -- C   248       -0.04      5.63000
==================================================


=================== Orbital energy and occupancy information ===================

      Total number of orbitals:    2560
        Occupancy sum (kernel):    1279.999999999
   Occupancy sum (eigenvalues):    1279.999999999
                 HOMO-LUMO gap:       0.061659888 Eh
                 Mid-gap level:       0.312526377 Eh

                        Orbital | Energy (Eh) | Occupancy
                            1    -0.419766345   1.0000000
                        .......   ...........   .........
                         1271     0.277694846   0.9999812
                         1272     0.277711225   0.9999811
                         1273     0.278161569   0.9999782
                         1274     0.278177860   0.9999781
                         1275     0.280540346   0.9999536
                         1276     0.280924944   0.9999476
                         1277     0.281265679   0.9999417
                         1278     0.281285647   0.9999414
                         1279     0.281676176   0.9999337
                         1280     0.281696433   0.9999332
                        ....... -- gap at 0K -- .........
                         1281     0.343356321   0.0000523
                         1282     0.343357812   0.0000522
                         1283     0.343616039   0.0000482
                         1284     0.343617473   0.0000481
                         1285     0.344858067   0.0000327
                         1286     0.344879082   0.0000325
                         1287     0.345139847   0.0000299
                         1288     0.345161044   0.0000297
                         1289     0.345731960   0.0000249
                         1290     0.346023377   0.0000227
                        .......   ...........   .........
                         2560     1.206232646   0.0000000

================================================================================

===================== Writing canonical molecular orbitals =====================
| Orbital  Energy (eV)  Norm     |
| HOMO      7.66534999  1.000000 | Writing "2.9783632_GO_manual_4x64graphite_HOMO.cube" ... done
Writing "2.9783632_GO_manual_4x64graphite_HOMO.dx" ... done
| LUMO      9.34320091  1.000000 | Writing "2.9783632_GO_manual_4x64graphite_LUMO.cube" ... done
Writing "2.9783632_GO_manual_4x64graphite_LUMO.dx" ... done
================================================================================
 
===================== Density of States (DOS) calculation ======================
Writing "2.9783632_GO_manual_4x64graphite_DOS.txt" ...  done
================================================================================
 
Writing bands to file "2.9783632_GO_manual_4x64graphite.val_bands" ... done
 
================ Projected Density of States (pDOS) calculation ================
 
Constructing AM resolved functions  ...... done
Writing NGWF plot files in formats: CUBE DX ...  done
 
Performing overlap integrals ...  done
 
Computing pDOS weights ...  done
 
All bands spilling parameter =   3.67 %
Occupancy-weighted spilling parameter =   0.77 %
 
 => Outputting data for OptaDOS <=
 
Writing pDOS weights to file "2.9783632_GO_manual_4x64graphite.val_pdos_bin" ... done
 
Writing band gradients to file "2.9783632_GO_manual_4x64graphite.val_dome_bin" ... done
 
Writing Castep output cell file to "2.9783632_GO_manual_4x64graphite-out.cell" ... done
 
 => Computing Gaussian smeared pDOS <= 
Writing "2.9783632_GO_manual_4x64graphite_PDOS.txt" ...  done
 
 => Computing Occupancy-weighted Gaussian smeared pDOS <= 
Writing "2.9783632_GO_manual_4x64graphite_occ_PDOS.txt" ...  done
  => Band centres: 
 S band centre of group 1:  -13.835846 eV
 P band centre of group 1:   -6.749355 eV
  Band centres done. <=
  => Integrated number of electrons in each AM band: 
 S num electrons of group 1:  576.266037
 P num electrons of group 1: 1964.013705
  Integrated number of electrons done. <=
================================================================================

------------------------------ TIMING INFORMATION ------------------------------
AVERAGE TIME:    4695.983s on     40 node(s)                                    
TOTAL TIME:      4695.985s on     40 node(s)                                    
================= AVERAGE TIMINGS FROM ALL NODES (CUMULATIVE) ==================
|| TAG                                    #calls    cpu time   %total  Gflops ||
|| work_imbalance                       :     1        0.00s   0.000%  ------ ||
|| paw_tcore_hartree_on_grid            :     1        0.00s   0.000%  ------ ||
|| paw_tcore_density                    :     1        0.01s   0.000%  ------ ||
|| paw_sphere_density_on_grid           :     1        0.01s   0.000%  ------ ||
|| sparse_set_to_garbage                :   171        0.03s   0.001%  ------ ||
|| pseudo_make_structure_factor         :     1        0.05s   0.001%  ------ ||
|| paw_dij_hartree                      :   414        0.05s   0.001%  ------ ||
|| basis_extract_function_from_box      :  1920        0.08s   0.002%  ------ ||
|| paw_species_calc_proj_prec_mat       :     1        0.12s   0.002%  ------ ||
|| paw_dataset_init                     :     1        0.15s   0.003%  ------ ||
|| density_init_guess_real              :     1        0.40s   0.008%  ------ ||
|| sparse_init                          :     1        0.95s   0.020%  ------ ||
|| dense_normal_eigensolve              :     1        1.03s   0.022%  ------ ||
|| restart_kernel_write                 :    16        1.07s   0.023%  ------ ||
|| hartree_on_grid                      :   310        1.48s   0.031%  ------ ||
|| ngwfs_initialise_from_radial         :     2        1.82s   0.039%  ------ ||
|| ewald_calculate_energy               :     1        1.95s   0.042%  ------ ||
|| projectors_init_fftbox_recip         :   151        2.80s   0.060%  ------ ||
|| basis_copy_function_to_box           : 28992        5.55s   0.118%  ------ ||
|| fourier_apply_box_pair               :  2848        5.85s   0.125% 426.555 ||
|| sw_init                              :     1        6.73s   0.143%  ------ ||
|| augmentation_screen_dij              :   315        7.11s   0.151%  ------ ||
|| sparse_embed_hotelling_invert_embed  :    29        8.96s   0.191%  ------ ||
|| ngwf_gradient_coeffs                 :    15       11.95s   0.255%  ------ ||
|| cell_grid_extract_box_real           : 12284       16.23s   0.346%  ------ ||
|| fourier_apply_cell_backward          :  9581       18.04s   0.384%  54.914 ||
|| fourier_apply_cell_forward           :  8962       19.15s   0.408%  48.388 ||
|| sparse_trace                         :  3776       21.02s   0.448%  ------ ||
|| cell_grid_deposit_box_real           : 39856       25.35s   0.540%  ------ ||
|| paw_dij_xc                           :   414       27.88s   0.594%  ------ ||
|| aug_nonlocal_mat                     :   399       43.10s   0.918%  ------ ||
|| density_fftbox_deposit_to_cell       : 19840       44.76s   0.953%  ------ ||
|| hamiltonian_energy_components        :     3       54.59s   1.163%  ------ ||
|| eigenstates_pdos                     :     1       55.68s   1.186%  ------ ||
|| eigenstates_calculate                :     1       60.09s   1.280%  ------ ||
|| augmentation_density_on_grid         :   310       60.17s   1.281%  ------ ||
|| function_ops_brappd_ketppd           :    60       70.43s   1.500%  ------ ||
|| projectors_func_ovlp_box             :    30       74.98s   1.597%  ------ ||
|| nlxc_vdw_energy                      :   618       76.02s   1.619%  ------ ||
|| xc_energy_potential                  :   309       86.66s   1.845%  ------ ||
|| properties_calculate                 :     1      105.60s   2.249%  ------ ||
|| integrals_kinetic                    :    29      118.85s   2.531%  ------ ||
|| dense_eigensolve                     :   277      137.69s   2.932%  ------ ||
|| restart_ngwfs_tightbox_output        :    14      151.35s   3.223%  ------ ||
|| potential_apply_to_ngwf_batch        :   392      153.55s   3.270%  ------ ||
|| sparse_product                       :  3708      167.65s   3.570%  ------ ||
|| projectors_gradient_batch            :    60      269.81s   5.746%  ------ ||
|| basis_dot_function_with_box          : 10.48M     285.25s   6.074%  ------ ||
|| edft_diag_ngwf_ham                   :   276      307.86s   6.556%  ------ ||
|| fourier_apply_box                    : 90528      311.44s   6.632% 842.730 ||
|| density_fftbox_interpolate_multiply  : 19840      380.64s   8.106%  ------ ||
|| projectors_grad_precond_batch        :    60      386.22s   8.225%  ------ ||
|| integrals_locpot_mat_els_batch       :   392      411.15s   8.755%  ------ ||
|| density_batch_interp_deposit         :  1240      471.53s  10.041%  ------ ||
|| integrals_locpot_dbl_grid            :    98      566.85s  12.071%  ------ ||
|| edft_apply_smearing_operator         :   276      600.06s  12.778%  ------ ||
|| ngwf_gradient_build_batch            :    60      701.44s  14.937%  ------ ||
|| basis_add_function_to_box            : 30.22M     785.22s  16.721%  ------ ||
|| ngwf_gradient_batch                  :    60      977.51s  20.816%  ------ ||
|| ngwf_gradient_lnv                    :    15     1012.84s  21.568%  ------ ||
|| density_batch_row_sums               :  1240     1178.38s  25.093%  ------ ||
|| density_on_dbl_grid                  :   310     1669.21s  35.546%  ------ ||
|| hamiltonian_lhxc_calculate           :   305     1793.40s  38.190%  ------ ||
|| edft_calculate                       :    15     2959.91s  63.031%  ------ ||
|| ngwf_cg_optimise                     :     1     4563.40s  97.177%  ------ ||
|| total_time                           :     1     4695.98s 100.000%  ------ ||
================================================================================
Overhead of generating timer report: 
- 0 ms averaging over threads,
- 5 ms ensuring consistency across MPI ranks,
- 0 ms printing in order.

Job completed: 25-02-2020 01:36 (-0000)

