 +---------------------------------------------------------------+
 |                                                               |
 |        ####### #     # ####### ####### ####### ######         |
 |        #     # ##    # #          #    #       #     #        |
 |        #     # # #   # #          #    #       #     #        |
 |        #     # #  #  # #####      #    #####   ######         |
 |        #     # #   # # #          #    #       #              |
 |        #     # #    ## #          #    #       #              |
 |        ####### #     # #######    #    ####### #              |
 |                                                               |
 |        Linear-Scaling Ab Initio Total Energy Program          |
 |                                                               |
 |          Release for academic collaborators of ODG            |
 |                                             Version 5.3.2.12  |
 |                                                               |
 +---------------------------------------------------------------+
 |                                                               |
 |  Authors:                                                     |
 |  Jacek Dziedzic, Peter D. Haynes, Nicholas D. M. Hine,        |
 |  Arash. A. Mostofi, Mike C. Payne and Chris-Kriton Skylaris   |
 |                                                               |
 |  Contributors:                                                |
 |  J. Aarons, L. Andrinopoulos, P. W. Avraam, R. A. Bell,       |
 |  A. Bhandari, G. A. Bramley, R. J. Charlton, S. J. Clark,     |
 |  R. J. Clements, G. C. Constantinescu, F. Corsetti,           |
 |  N. Corsini, O. Dieguez, S. M. M. Dubois, K. K. B. Duff,      |
 |  J. M. Escartin, A. Greco, H. Helal, Q. O. Hill, L. P. Lee,   |
 |  J.-H. Li, E. B. Linscott, G. Moynihan, D. D. O`Regan,        |
 |  O. K. Okan, M. J. S. Phipps, C. J. Pickard,                  |
 |  J. C. A. Prentice, M. I. J. Probert, L. E. Ratcliff,         |
 |  M. Robinson, A. Ruiz Serrano, J. S. Spencer, E. W. Tait,     |
 |  G. Teobaldi, D. Turban, V. Vitale, K. A. Wilkinson,          |
 |  C. Weber, J. C. Womack, N. Yeung and T. J. Zuehlsdorff       |
 |                                                               |
 |                                   Copyright (c) 2004-2020     |
 |                                                               |
 |  Please cite:                                                 |
 |  "Introducing ONETEP: Linear-scaling density functional       |
 |   simulations on parallel computers".                         |
 |   C.-K. Skylaris, P. D. Haynes, A. A. Mostofi, M. C. Payne.   |
 |   J. Chem. Phys. 122 084119 (2005).                           |
 |                                                               |
 |          in all publications arising from your use of ONETEP. |
 |                                                               |
 +---------------------------------------------------------------+
 |                                                               |
 |   ONETEP is based on developments described in the following  |
 |   publications:                                               |
 |                                                               |
 |  "Nonorthogonal generalized Wannier function pseudopotential  |
 |   plane-wave method".                                         |
 |   C.-K. Skylaris, A. A. Mostofi, P. D. Haynes, O. Dieguez,    |
 |   M. C. Payne.                                                |
 |   Phys. Rev. B 66 035119 (2002).                              |
 |                                                               |
 |  "Preconditioned iterative minimization for linear-scaling    |
 |   electronic structure calculations".                         |
 |   A. A. Mostofi, P. D. Haynes, C.-K. Skylaris, M. C. Payne.   |
 |   J. Chem. Phys. 119(17), pp.8842-8848 (2003).                |
 |                                                               |
 |  "Total-energy calculations on a real space grid with         |
 |   localized functions and a plane-wave basis".                |
 |   A. A. Mostofi, C.-K. Skylaris, P. D. Haynes, M. C. Payne.   |
 |   Comput. Phys. Commun. 147, pp.788-802 (2002).               |
 |                                                               |
 |  "Accurate kinetic energy evaluation in electronic structure  |
 |   calculations with localized functions on real space grids"  |
 |   C.-K. Skylaris, A. A. Mostofi, P. D. Haynes, C. J. Pickard, |
 |   M. C. Payne.                                                |
 |   Comput. Phys. Commun. 140, pp.315-322 (2001).               |
 |                                                               |
 |  "Accurate ionic forces and geometry optimization in linear-  |
 |   scaling density-functional theory with local orbitals"      |
 |   N. D. M. Hine, M. Robinson, P. D. Haynes, C.-K. Skylaris,   |
 |   M. C. Payne, and A. A. Mostofi.                             |
 |   Phys. Rev. B 83 195102 (2011).                              |
 |                                                               |
 +---------------------------------------------------------------+

Job started: 24-02-2020 20:38 (-0000)
 
Reading parameters from file "3.085688_GO_manual_4x64graphite.dat" ...

WARNING: "cutoff_energy" not specified, but "psinc_spacing" specified.
         Using the latter to set the KE cutoff energy to  732.32021eV,
         thus *overriding* the default.

... done

If your calculation crashes here, before "Checking processes and threads..."
is displayed, then your stack size is insufficient.
If so, use "ulimit -s unlimited" at runtime.
You can disable this check with "check_stack_size F".

Checking processes and threads...
   Determining the default number of threads...
      No default threads set at compilation time: defaulting to 1.
      OpenMP library call suggests 4 threads.
      Hybrid MPI-OpenMP compilation detected.
      Number of MPI processes > 1.
      OMP_NUM_THREADS environment variable present and
      its value matches the one obtained from the OpenMP library call.
      Using this value as default.
      Default threads: 4
      Default applies to threads_max and threads_num_fftboxes.
      Settings in the input file override this default.
   ... done

   Running with 40 MPI processes.
   There are 10 MPI processes running on the same node as the root process.
   Each MPI process is using: 
               1 threads for simulation cell FFTs.
               1 threads for parallel FFT box operations.
               4 threads for loops over batched FFT box operations.
               4 threads in other parallel regions.
... done

Basic input checks...
Resetting ngwf_cg_rotate to TRUE for EDFT calculations
... done

Reading geometry and species blocks from file "3.085688_GO_manual_4x64graphite.dat" ...
    
  PSINC grid spacing along a1 set to   0.511215680000a0 from input file.
  PSINC grid spacing along a2 set to   0.531284090000a0 from input file.
  PSINC grid spacing along a3 set to   0.507053670000a0 from input file.
  PSINC grid spacing along a1 set to   0.511215680000a0 from input file.
  PSINC grid spacing along a2 set to   0.531284090000a0 from input file.
  PSINC grid spacing along a3 set to   0.507053670000a0 from input file.
  Number of PPD points along a3 set to 1.  This is 
  the default value, it may have been provided also in the input file.
... done
 Writing xyz coordinates to file "3.085688_GO_manual_4x64graphite.xyz" ... done


--------------------------------------------------------------------------------
---------------------------------- INPUT FILE ----------------------------------
--------------------------------------------------------------------------------

task : singlepoint                                                              
do_properties : true                                                            
dx_format T                                                                     
edft T                                                                          
output_detail VERBOSE                                                           
write_xyz T                                                                     
xc_functional OPTPBE                                                            
PSINC_SPACING 0.51121568 0.53128409 0.50705367                                  
paw T                                                                           
pdos_max_l = 2                                                                  
dos_smear  0.1 eV                                                               
popn_calculate T                                                                
PDOS_PSEUDOATOMIC T                                                             
PDOS_REDUCE_SWS F                                                               
PDOS_CONSTRUCT_BASIS F                                                          
PDOS_LOWDIN T                                                                   
PDOS_ORTH_ATOM_BLOCKS F                                                         
PDOS_LCAO_OPTIMIZE F                                                            
pdos_optados_output T                                                           
homo_plot 0                                                                     
lumo_plot 0                                                                     
homo_dens_plot -1                                                               
lumo_dens_plot -1                                                               
%BLOCK SPECIES                                                                  
C C 6 4 9.0                                                                     
%ENDBLOCK SPECIES                                                               
%BLOCK SPECIES_POT                                                              
C "~/pp/paw/c_pbe_abinit.paw"                                                   
%ENDBLOCK SPECIES_POT                                                           
%BLOCK SPECIES_ATOMIC_SET                                                       
C "SOLVE conf=2s2 2p2"                                                          
%ENDBLOCK SPECIES_ATOMIC_SET                                                    
%BLOCK LATTICE_CART                                                             
32.21  0.00  0.00                                                               
0.00 18.59  0.00                                                                
0.00  0.00 58.31                                                                
%ENDBLOCK LATTICE_CART                                                          
%BLOCK POSITIONS_ABS                                                            
C  0.00  0.00  2.92                                                             
C  0.00  0.00 14.58                                                             
C  0.00  0.00 26.24                                                             
C  0.00  0.00 37.90                                                             
C  0.00  0.00 49.56                                                             
C  0.00  4.65  2.92                                                             
C  0.00  4.65 14.58                                                             
C  0.00  4.65 26.24                                                             
C  0.00  4.65 37.90                                                             
C  0.00  4.65 49.56                                                             
C  4.03  2.32  2.92                                                             
C  4.03  2.32 14.58                                                             
C  4.03  2.32 26.24                                                             
C  4.03  2.32 37.90                                                             
C  4.03  2.32 49.56                                                             
C  8.05  0.00  2.92                                                             
C  8.05  0.00 14.58                                                             
C  8.05  0.00 26.24                                                             
C  8.05  0.00 37.90                                                             
C  8.05  0.00 49.56                                                             
C  0.00  9.30  2.92                                                             
C  0.00  9.30 14.58                                                             
C  0.00  9.30 26.24                                                             
C  0.00  9.30 37.90                                                             
C  0.00  9.30 49.56                                                             
C  4.03  6.97  2.92                                                             
C  4.03  6.97 14.58                                                             
C  4.03  6.97 26.24                                                             
C  4.03  6.97 37.90                                                             
C  4.03  6.97 49.56                                                             
C  8.05  4.65  2.92                                                             
C  8.05  4.65 14.58                                                             
C  8.05  4.65 26.24                                                             
C  8.05  4.65 37.90                                                             
C  8.05  4.65 49.56                                                             
C 12.08  2.32  2.92                                                             
C 12.08  2.32 14.58                                                             
C 12.08  2.32 26.24                                                             
C 12.08  2.32 37.90                                                             
C 12.08  2.32 49.56                                                             
C 16.10  0.00  2.92                                                             
C 16.10  0.00 14.58                                                             
C 16.10  0.00 26.24                                                             
C 16.10  0.00 37.90                                                             
C 16.10  0.00 49.56                                                             
C  0.00 13.95  2.92                                                             
C  0.00 13.95 14.58                                                             
C  0.00 13.95 26.24                                                             
C  0.00 13.95 37.90                                                             
C  0.00 13.95 49.56                                                             
C  4.03 11.62  2.92                                                             
C  4.03 11.62 14.58                                                             
C  4.03 11.62 26.24                                                             
C  4.03 11.62 37.90                                                             
C  4.03 11.62 49.56                                                             
C  8.05  9.30  2.92                                                             
C  8.05  9.30 14.58                                                             
C  8.05  9.30 26.24                                                             
C  8.05  9.30 37.90                                                             
C  8.05  9.30 49.56                                                             
C 12.08  6.97  2.92                                                             
C 12.08  6.97 14.58                                                             
C 12.08  6.97 26.24                                                             
C 12.08  6.97 37.90                                                             
C 12.08  6.97 49.56                                                             
C 16.10  4.65  2.92                                                             
C 16.10  4.65 14.58                                                             
C 16.10  4.65 26.24                                                             
C 16.10  4.65 37.90                                                             
C 16.10  4.65 49.56                                                             
C 20.13  2.32  2.92                                                             
C 20.13  2.32 14.58                                                             
C 20.13  2.32 26.24                                                             
C 20.13  2.32 37.90                                                             
C 20.13  2.32 49.56                                                             
C 24.16  0.00  2.92                                                             
C 24.16  0.00 14.58                                                             
C 24.16  0.00 26.24                                                             
C 24.16  0.00 37.90                                                             
C 24.16  0.00 49.56                                                             
C  4.03 16.27  2.92                                                             
C  4.03 16.27 14.58                                                             
C  4.03 16.27 26.24                                                             
C  4.03 16.27 37.90                                                             
C  4.03 16.27 49.56                                                             
C  8.05 13.95  2.92                                                             
C  8.05 13.95 14.58                                                             
C  8.05 13.95 26.24                                                             
C  8.05 13.95 37.90                                                             
C  8.05 13.95 49.56                                                             
C 12.08 11.62  2.92                                                             
C 12.08 11.62 14.58                                                             
C 12.08 11.62 26.24                                                             
C 12.08 11.62 37.90                                                             
C 12.08 11.62 49.56                                                             
C 16.10  9.30  2.92                                                             
C 16.10  9.30 14.58                                                             
C 16.10  9.30 26.24                                                             
C 16.10  9.30 37.90                                                             
C 16.10  9.30 49.56                                                             
C 20.13  6.97  2.92                                                             
C 20.13  6.97 14.58                                                             
C 20.13  6.97 26.24                                                             
C 20.13  6.97 37.90                                                             
C 20.13  6.97 49.56                                                             
C 24.16  4.65  2.92                                                             
C 24.16  4.65 14.58                                                             
C 24.16  4.65 26.24                                                             
C 24.16  4.65 37.90                                                             
C 24.16  4.65 49.56                                                             
C 28.18  2.32  2.92                                                             
C 28.18  2.32 14.58                                                             
C 28.18  2.32 26.24                                                             
C 28.18  2.32 37.90                                                             
C 28.18  2.32 49.56                                                             
C 12.08 16.27  2.92                                                             
C 12.08 16.27 14.58                                                             
C 12.08 16.27 26.24                                                             
C 12.08 16.27 37.90                                                             
C 12.08 16.27 49.56                                                             
C 16.10 13.95  2.92                                                             
C 16.10 13.95 14.58                                                             
C 16.10 13.95 26.24                                                             
C 16.10 13.95 37.90                                                             
C 16.10 13.95 49.56                                                             
C 20.13 11.62  2.92                                                             
C 20.13 11.62 14.58                                                             
C 20.13 11.62 26.24                                                             
C 20.13 11.62 37.90                                                             
C 20.13 11.62 49.56                                                             
C 24.16  9.30  2.92                                                             
C 24.16  9.30 14.58                                                             
C 24.16  9.30 26.24                                                             
C 24.16  9.30 37.90                                                             
C 24.16  9.30 49.56                                                             
C 28.18  6.97  2.92                                                             
C 28.18  6.97 14.58                                                             
C 28.18  6.97 26.24                                                             
C 28.18  6.97 37.90                                                             
C 28.18  6.97 49.56                                                             
C 20.13 16.27  2.92                                                             
C 20.13 16.27 14.58                                                             
C 20.13 16.27 26.24                                                             
C 20.13 16.27 37.90                                                             
C 20.13 16.27 49.56                                                             
C 24.16 13.95  2.92                                                             
C 24.16 13.95 14.58                                                             
C 24.16 13.95 26.24                                                             
C 24.16 13.95 37.90                                                             
C 24.16 13.95 49.56                                                             
C 28.18 11.62  2.92                                                             
C 28.18 11.62 14.58                                                             
C 28.18 11.62 26.24                                                             
C 28.18 11.62 37.90                                                             
C 28.18 11.62 49.56                                                             
C 28.18 16.27  2.92                                                             
C 28.18 16.27 14.58                                                             
C 28.18 16.27 26.24                                                             
C 28.18 16.27 37.90                                                             
C 28.18 16.27 49.56                                                             
C  0.00  0.00  8.75                                                             
C  0.00  0.00 20.41                                                             
C  0.00  0.00 32.07                                                             
C  0.00  0.00 43.73                                                             
C  0.00  0.00 55.40                                                             
C  0.00  4.65  8.75                                                             
C  0.00  4.65 20.41                                                             
C  0.00  4.65 32.07                                                             
C  0.00  4.65 43.73                                                             
C  0.00  4.65 55.40                                                             
C  4.03  2.32  8.75                                                             
C  4.03  2.32 20.41                                                             
C  4.03  2.32 32.07                                                             
C  4.03  2.32 43.73                                                             
C  4.03  2.32 55.40                                                             
C  8.05  0.00  8.75                                                             
C  8.05  0.00 20.41                                                             
C  8.05  0.00 32.07                                                             
C  8.05  0.00 43.73                                                             
C  8.05  0.00 55.40                                                             
C  0.00  9.30  8.75                                                             
C  0.00  9.30 20.41                                                             
C  0.00  9.30 32.07                                                             
C  0.00  9.30 43.73                                                             
C  0.00  9.30 55.40                                                             
C  4.03  6.97  8.75                                                             
C  4.03  6.97 20.41                                                             
C  4.03  6.97 32.07                                                             
C  4.03  6.97 43.73                                                             
C  4.03  6.97 55.40                                                             
C  8.05  4.65  8.75                                                             
C  8.05  4.65 20.41                                                             
C  8.05  4.65 32.07                                                             
C  8.05  4.65 43.73                                                             
C  8.05  4.65 55.40                                                             
C 12.08  2.32  8.75                                                             
C 12.08  2.32 20.41                                                             
C 12.08  2.32 32.07                                                             
C 12.08  2.32 43.73                                                             
C 12.08  2.32 55.40                                                             
C 16.10  0.00  8.75                                                             
C 16.10  0.00 20.41                                                             
C 16.10  0.00 32.07                                                             
C 16.10  0.00 43.73                                                             
C 16.10  0.00 55.40                                                             
C  0.00 13.95  8.75                                                             
C  0.00 13.95 20.41                                                             
C  0.00 13.95 32.07                                                             
C  0.00 13.95 43.73                                                             
C  0.00 13.95 55.40                                                             
C  4.03 11.62  8.75                                                             
C  4.03 11.62 20.41                                                             
C  4.03 11.62 32.07                                                             
C  4.03 11.62 43.73                                                             
C  4.03 11.62 55.40                                                             
C  8.05  9.30  8.75                                                             
C  8.05  9.30 20.41                                                             
C  8.05  9.30 32.07                                                             
C  8.05  9.30 43.73                                                             
C  8.05  9.30 55.40                                                             
C 12.08  6.97  8.75                                                             
C 12.08  6.97 20.41                                                             
C 12.08  6.97 32.07                                                             
C 12.08  6.97 43.73                                                             
C 12.08  6.97 55.40                                                             
C 16.10  4.65  8.75                                                             
C 16.10  4.65 20.41                                                             
C 16.10  4.65 32.07                                                             
C 16.10  4.65 43.73                                                             
C 16.10  4.65 55.40                                                             
C 20.13  2.32  8.75                                                             
C 20.13  2.32 20.41                                                             
C 20.13  2.32 32.07                                                             
C 20.13  2.32 43.73                                                             
C 20.13  2.32 55.40                                                             
C 24.16  0.00  8.75                                                             
C 24.16  0.00 20.41                                                             
C 24.16  0.00 32.07                                                             
C 24.16  0.00 43.73                                                             
C 24.16  0.00 55.40                                                             
C  4.03 16.27  8.75                                                             
C  4.03 16.27 20.41                                                             
C  4.03 16.27 32.07                                                             
C  4.03 16.27 43.73                                                             
C  4.03 16.27 55.40                                                             
C  8.05 13.95  8.75                                                             
C  8.05 13.95 20.41                                                             
C  8.05 13.95 32.07                                                             
C  8.05 13.95 43.73                                                             
C  8.05 13.95 55.40                                                             
C 12.08 11.62  8.75                                                             
C 12.08 11.62 20.41                                                             
C 12.08 11.62 32.07                                                             
C 12.08 11.62 43.73                                                             
C 12.08 11.62 55.40                                                             
C 16.10  9.30  8.75                                                             
C 16.10  9.30 20.41                                                             
C 16.10  9.30 32.07                                                             
C 16.10  9.30 43.73                                                             
C 16.10  9.30 55.40                                                             
C 20.13  6.97  8.75                                                             
C 20.13  6.97 20.41                                                             
C 20.13  6.97 32.07                                                             
C 20.13  6.97 43.73                                                             
C 20.13  6.97 55.40                                                             
C 24.16  4.65  8.75                                                             
C 24.16  4.65 20.41                                                             
C 24.16  4.65 32.07                                                             
C 24.16  4.65 43.73                                                             
C 24.16  4.65 55.40                                                             
C 28.18  2.32  8.75                                                             
C 28.18  2.32 20.41                                                             
C 28.18  2.32 32.07                                                             
C 28.18  2.32 43.73                                                             
C 28.18  2.32 55.40                                                             
C 12.08 16.27  8.75                                                             
C 12.08 16.27 20.41                                                             
C 12.08 16.27 32.07                                                             
C 12.08 16.27 43.73                                                             
C 12.08 16.27 55.40                                                             
C 16.10 13.95  8.75                                                             
C 16.10 13.95 20.41                                                             
C 16.10 13.95 32.07                                                             
C 16.10 13.95 43.73                                                             
C 16.10 13.95 55.40                                                             
C 20.13 11.62  8.75                                                             
C 20.13 11.62 20.41                                                             
C 20.13 11.62 32.07                                                             
C 20.13 11.62 43.73                                                             
C 20.13 11.62 55.40                                                             
C 24.16  9.30  8.75                                                             
C 24.16  9.30 20.41                                                             
C 24.16  9.30 32.07                                                             
C 24.16  9.30 43.73                                                             
C 24.16  9.30 55.40                                                             
C 28.18  6.97  8.75                                                             
C 28.18  6.97 20.41                                                             
C 28.18  6.97 32.07                                                             
C 28.18  6.97 43.73                                                             
C 28.18  6.97 55.40                                                             
C 20.13 16.27  8.75                                                             
C 20.13 16.27 20.41                                                             
C 20.13 16.27 32.07                                                             
C 20.13 16.27 43.73                                                             
C 20.13 16.27 55.40                                                             
C 24.16 13.95  8.75                                                             
C 24.16 13.95 20.41                                                             
C 24.16 13.95 32.07                                                             
C 24.16 13.95 43.73                                                             
C 24.16 13.95 55.40                                                             
C 28.18 11.62  8.75                                                             
C 28.18 11.62 20.41                                                             
C 28.18 11.62 32.07                                                             
C 28.18 11.62 43.73                                                             
C 28.18 11.62 55.40                                                             
C 28.18 16.27  8.75                                                             
C 28.18 16.27 20.41                                                             
C 28.18 16.27 32.07                                                             
C 28.18 16.27 43.73                                                             
C 28.18 16.27 55.40                                                             
C  1.34  2.32  2.92                                                             
C  1.34  2.32 14.58                                                             
C  1.34  2.32 26.24                                                             
C  1.34  2.32 37.90                                                             
C  1.34  2.32 49.56                                                             
C  5.37  0.00  2.92                                                             
C  5.37  0.00 14.58                                                             
C  5.37  0.00 26.24                                                             
C  5.37  0.00 37.90                                                             
C  5.37  0.00 49.56                                                             
C  1.34  6.97  2.92                                                             
C  1.34  6.97 14.58                                                             
C  1.34  6.97 26.24                                                             
C  1.34  6.97 37.90                                                             
C  1.34  6.97 49.56                                                             
C  5.37  4.65  2.92                                                             
C  5.37  4.65 14.58                                                             
C  5.37  4.65 26.24                                                             
C  5.37  4.65 37.90                                                             
C  5.37  4.65 49.56                                                             
C  9.39  2.32  2.92                                                             
C  9.39  2.32 14.58                                                             
C  9.39  2.32 26.24                                                             
C  9.39  2.32 37.90                                                             
C  9.39  2.32 49.56                                                             
C 13.42  0.00  2.92                                                             
C 13.42  0.00 14.58                                                             
C 13.42  0.00 26.24                                                             
C 13.42  0.00 37.90                                                             
C 13.42  0.00 49.56                                                             
C  1.34 11.62  2.92                                                             
C  1.34 11.62 14.58                                                             
C  1.34 11.62 26.24                                                             
C  1.34 11.62 37.90                                                             
C  1.34 11.62 49.56                                                             
C  5.37  9.30  2.92                                                             
C  5.37  9.30 14.58                                                             
C  5.37  9.30 26.24                                                             
C  5.37  9.30 37.90                                                             
C  5.37  9.30 49.56                                                             
C  9.39  6.97  2.92                                                             
C  9.39  6.97 14.58                                                             
C  9.39  6.97 26.24                                                             
C  9.39  6.97 37.90                                                             
C  9.39  6.97 49.56                                                             
C 13.42  4.65  2.92                                                             
C 13.42  4.65 14.58                                                             
C 13.42  4.65 26.24                                                             
C 13.42  4.65 37.90                                                             
C 13.42  4.65 49.56                                                             
C 17.45  2.32  2.92                                                             
C 17.45  2.32 14.58                                                             
C 17.45  2.32 26.24                                                             
C 17.45  2.32 37.90                                                             
C 17.45  2.32 49.56                                                             
C 21.47  0.00  2.92                                                             
C 21.47  0.00 14.58                                                             
C 21.47  0.00 26.24                                                             
C 21.47  0.00 37.90                                                             
C 21.47  0.00 49.56                                                             
C  1.34 16.27  2.92                                                             
C  1.34 16.27 14.58                                                             
C  1.34 16.27 26.24                                                             
C  1.34 16.27 37.90                                                             
C  1.34 16.27 49.56                                                             
C  5.37 13.95  2.92                                                             
C  5.37 13.95 14.58                                                             
C  5.37 13.95 26.24                                                             
C  5.37 13.95 37.90                                                             
C  5.37 13.95 49.56                                                             
C  9.39 11.62  2.92                                                             
C  9.39 11.62 14.58                                                             
C  9.39 11.62 26.24                                                             
C  9.39 11.62 37.90                                                             
C  9.39 11.62 49.56                                                             
C 13.42  9.30  2.92                                                             
C 13.42  9.30 14.58                                                             
C 13.42  9.30 26.24                                                             
C 13.42  9.30 37.90                                                             
C 13.42  9.30 49.56                                                             
C 17.45  6.97  2.92                                                             
C 17.45  6.97 14.58                                                             
C 17.45  6.97 26.24                                                             
C 17.45  6.97 37.90                                                             
C 17.45  6.97 49.56                                                             
C 21.47  4.65  2.92                                                             
C 21.47  4.65 14.58                                                             
C 21.47  4.65 26.24                                                             
C 21.47  4.65 37.90                                                             
C 21.47  4.65 49.56                                                             
C 25.50  2.32  2.92                                                             
C 25.50  2.32 14.58                                                             
C 25.50  2.32 26.24                                                             
C 25.50  2.32 37.90                                                             
C 25.50  2.32 49.56                                                             
C 29.52  0.00  2.92                                                             
C 29.52  0.00 14.58                                                             
C 29.52  0.00 26.24                                                             
C 29.52  0.00 37.90                                                             
C 29.52  0.00 49.56                                                             
C  9.39 16.27  2.92                                                             
C  9.39 16.27 14.58                                                             
C  9.39 16.27 26.24                                                             
C  9.39 16.27 37.90                                                             
C  9.39 16.27 49.56                                                             
C 13.42 13.95  2.92                                                             
C 13.42 13.95 14.58                                                             
C 13.42 13.95 26.24                                                             
C 13.42 13.95 37.90                                                             
C 13.42 13.95 49.56                                                             
C 17.45 11.62  2.92                                                             
C 17.45 11.62 14.58                                                             
C 17.45 11.62 26.24                                                             
C 17.45 11.62 37.90                                                             
C 17.45 11.62 49.56                                                             
C 21.47  9.30  2.92                                                             
C 21.47  9.30 14.58                                                             
C 21.47  9.30 26.24                                                             
C 21.47  9.30 37.90                                                             
C 21.47  9.30 49.56                                                             
C 25.50  6.97  2.92                                                             
C 25.50  6.97 14.58                                                             
C 25.50  6.97 26.24                                                             
C 25.50  6.97 37.90                                                             
C 25.50  6.97 49.56                                                             
C 29.52  4.65  2.92                                                             
C 29.52  4.65 14.58                                                             
C 29.52  4.65 26.24                                                             
C 29.52  4.65 37.90                                                             
C 29.52  4.65 49.56                                                             
C 17.45 16.27  2.92                                                             
C 17.45 16.27 14.58                                                             
C 17.45 16.27 26.24                                                             
C 17.45 16.27 37.90                                                             
C 17.45 16.27 49.56                                                             
C 21.47 13.95  2.92                                                             
C 21.47 13.95 14.58                                                             
C 21.47 13.95 26.24                                                             
C 21.47 13.95 37.90                                                             
C 21.47 13.95 49.56                                                             
C 25.50 11.62  2.92                                                             
C 25.50 11.62 14.58                                                             
C 25.50 11.62 26.24                                                             
C 25.50 11.62 37.90                                                             
C 25.50 11.62 49.56                                                             
C 29.52  9.30  2.92                                                             
C 29.52  9.30 14.58                                                             
C 29.52  9.30 26.24                                                             
C 29.52  9.30 37.90                                                             
C 29.52  9.30 49.56                                                             
C 25.50 16.27  2.92                                                             
C 25.50 16.27 14.58                                                             
C 25.50 16.27 26.24                                                             
C 25.50 16.27 37.90                                                             
C 25.50 16.27 49.56                                                             
C 29.52 13.95  2.92                                                             
C 29.52 13.95 14.58                                                             
C 29.52 13.95 26.24                                                             
C 29.52 13.95 37.90                                                             
C 29.52 13.95 49.56                                                             
C  2.68  0.00  8.75                                                             
C  2.68  0.00 20.41                                                             
C  2.68  0.00 32.07                                                             
C  2.68  0.00 43.73                                                             
C  2.68  0.00 55.40                                                             
C  2.68  4.65  8.75                                                             
C  2.68  4.65 20.41                                                             
C  2.68  4.65 32.07                                                             
C  2.68  4.65 43.73                                                             
C  2.68  4.65 55.40                                                             
C  6.71  2.32  8.75                                                             
C  6.71  2.32 20.41                                                             
C  6.71  2.32 32.07                                                             
C  6.71  2.32 43.73                                                             
C  6.71  2.32 55.40                                                             
C 10.74  0.00  8.75                                                             
C 10.74  0.00 20.41                                                             
C 10.74  0.00 32.07                                                             
C 10.74  0.00 43.73                                                             
C 10.74  0.00 55.40                                                             
C  2.68  9.30  8.75                                                             
C  2.68  9.30 20.41                                                             
C  2.68  9.30 32.07                                                             
C  2.68  9.30 43.73                                                             
C  2.68  9.30 55.40                                                             
C  6.71  6.97  8.75                                                             
C  6.71  6.97 20.41                                                             
C  6.71  6.97 32.07                                                             
C  6.71  6.97 43.73                                                             
C  6.71  6.97 55.40                                                             
C 10.74  4.65  8.75                                                             
C 10.74  4.65 20.41                                                             
C 10.74  4.65 32.07                                                             
C 10.74  4.65 43.73                                                             
C 10.74  4.65 55.40                                                             
C 14.76  2.32  8.75                                                             
C 14.76  2.32 20.41                                                             
C 14.76  2.32 32.07                                                             
C 14.76  2.32 43.73                                                             
C 14.76  2.32 55.40                                                             
C 18.79  0.00  8.75                                                             
C 18.79  0.00 20.41                                                             
C 18.79  0.00 32.07                                                             
C 18.79  0.00 43.73                                                             
C 18.79  0.00 55.40                                                             
C  2.68 13.95  8.75                                                             
C  2.68 13.95 20.41                                                             
C  2.68 13.95 32.07                                                             
C  2.68 13.95 43.73                                                             
C  2.68 13.95 55.40                                                             
C  6.71 11.62  8.75                                                             
C  6.71 11.62 20.41                                                             
C  6.71 11.62 32.07                                                             
C  6.71 11.62 43.73                                                             
C  6.71 11.62 55.40                                                             
C 10.74  9.30  8.75                                                             
C 10.74  9.30 20.41                                                             
C 10.74  9.30 32.07                                                             
C 10.74  9.30 43.73                                                             
C 10.74  9.30 55.40                                                             
C 14.76  6.97  8.75                                                             
C 14.76  6.97 20.41                                                             
C 14.76  6.97 32.07                                                             
C 14.76  6.97 43.73                                                             
C 14.76  6.97 55.40                                                             
C 18.79  4.65  8.75                                                             
C 18.79  4.65 20.41                                                             
C 18.79  4.65 32.07                                                             
C 18.79  4.65 43.73                                                             
C 18.79  4.65 55.40                                                             
C 22.81  2.32  8.75                                                             
C 22.81  2.32 20.41                                                             
C 22.81  2.32 32.07                                                             
C 22.81  2.32 43.73                                                             
C 22.81  2.32 55.40                                                             
C 26.84  0.00  8.75                                                             
C 26.84  0.00 20.41                                                             
C 26.84  0.00 32.07                                                             
C 26.84  0.00 43.73                                                             
C 26.84  0.00 55.40                                                             
C  6.71 16.27  8.75                                                             
C  6.71 16.27 20.41                                                             
C  6.71 16.27 32.07                                                             
C  6.71 16.27 43.73                                                             
C  6.71 16.27 55.40                                                             
C 10.74 13.95  8.75                                                             
C 10.74 13.95 20.41                                                             
C 10.74 13.95 32.07                                                             
C 10.74 13.95 43.73                                                             
C 10.74 13.95 55.40                                                             
C 14.76 11.62  8.75                                                             
C 14.76 11.62 20.41                                                             
C 14.76 11.62 32.07                                                             
C 14.76 11.62 43.73                                                             
C 14.76 11.62 55.40                                                             
C 18.79  9.30  8.75                                                             
C 18.79  9.30 20.41                                                             
C 18.79  9.30 32.07                                                             
C 18.79  9.30 43.73                                                             
C 18.79  9.30 55.40                                                             
C 22.81  6.97  8.75                                                             
C 22.81  6.97 20.41                                                             
C 22.81  6.97 32.07                                                             
C 22.81  6.97 43.73                                                             
C 22.81  6.97 55.40                                                             
C 26.84  4.65  8.75                                                             
C 26.84  4.65 20.41                                                             
C 26.84  4.65 32.07                                                             
C 26.84  4.65 43.73                                                             
C 26.84  4.65 55.40                                                             
C 30.86  2.32  8.75                                                             
C 30.86  2.32 20.41                                                             
C 30.86  2.32 32.07                                                             
C 30.86  2.32 43.73                                                             
C 30.86  2.32 55.40                                                             
C 14.76 16.27  8.75                                                             
C 14.76 16.27 20.41                                                             
C 14.76 16.27 32.07                                                             
C 14.76 16.27 43.73                                                             
C 14.76 16.27 55.40                                                             
C 18.79 13.95  8.75                                                             
C 18.79 13.95 20.41                                                             
C 18.79 13.95 32.07                                                             
C 18.79 13.95 43.73                                                             
C 18.79 13.95 55.40                                                             
C 22.81 11.62  8.75                                                             
C 22.81 11.62 20.41                                                             
C 22.81 11.62 32.07                                                             
C 22.81 11.62 43.73                                                             
C 22.81 11.62 55.40                                                             
C 26.84  9.30  8.75                                                             
C 26.84  9.30 20.41                                                             
C 26.84  9.30 32.07                                                             
C 26.84  9.30 43.73                                                             
C 26.84  9.30 55.40                                                             
C 30.86  6.97  8.75                                                             
C 30.86  6.97 20.41                                                             
C 30.86  6.97 32.07                                                             
C 30.86  6.97 43.73                                                             
C 30.86  6.97 55.40                                                             
C 22.81 16.27  8.75                                                             
C 22.81 16.27 20.41                                                             
C 22.81 16.27 32.07                                                             
C 22.81 16.27 43.73                                                             
C 22.81 16.27 55.40                                                             
C 26.84 13.95  8.75                                                             
C 26.84 13.95 20.41                                                             
C 26.84 13.95 32.07                                                             
C 26.84 13.95 43.73                                                             
C 26.84 13.95 55.40                                                             
C 30.86 11.62  8.75                                                             
C 30.86 11.62 20.41                                                             
C 30.86 11.62 32.07                                                             
C 30.86 11.62 43.73                                                             
C 30.86 11.62 55.40                                                             
C 30.86 16.27  8.75                                                             
C 30.86 16.27 20.41                                                             
C 30.86 16.27 32.07                                                             
C 30.86 16.27 43.73                                                             
C 30.86 16.27 55.40                                                             
%ENDBLOCK POSITIONS_ABS                                                         

--------------------------------------------------------------------------------
-------------------------------- END INPUT FILE --------------------------------
--------------------------------------------------------------------------------


 
<<<<<<<<<<<<<<<<<<<<<<<<<<<<<<<<< Full system >>>>>>>>>>>>>>>>>>>>>>>>>>>>>>>>>>
<<<<<<<<<<<<<<<<<<<<<<<<<<< PAW Dataset information >>>>>>>>>>>>>>>>>>>>>>>>>>>
File: ~/pp/paw/c_pbe_abinit.paw; rc = 1.25 bohr; shape type =  3; rshape = 1.25 bohr;
  Atomic number:  6;  ionic charge:  4.000000
    Partial Wave 1: l = 0
    Partial Wave 2: l = 0
    Partial Wave 3: l = 1
    Partial Wave 4: l = 1
  Core charge supplied for Nonlinear Core Corrections
<<<<<<<<<<<<<<<<<<<<<<<<<<<<<<<<<<<<<<< >>>>>>>>>>>>>>>>>>>>>>>>>>>>>>>>>>>>>>>

-------------------------- Atom counting information ---------------------------
Symbol    Natoms    Nngwfs    Nprojs
  C        640      2560      5120
.......   ......    ......    ......
Totals:    640      2560      5120
--------------------------------------------------------------------------------

=============================== PSINC grid sizes ===============================
                      Simulation cell:   63 x  35 x 115
                              FFT-box:   63 x  35 x 111
                                  PPD:    7 x   5 x   1
Grid space d1=  0.511269841270a0 (KE cutoff=  29.06054Eh = 790.77748eV)
Grid space d2=  0.531142857143a0 (KE cutoff=  26.92659Eh = 732.70972eV)
Grid space d3=  0.507043478261a0 (KE cutoff=  29.54701Eh = 804.01516eV)
================================================================================
  
WARNING in cell_grid_distribute:
Average of less than one 23-slab per node, so workload cannot be
equally balanced between nodes.

********************* Fourier parallelisation information **********************
       Coarse grid (whole simulation cell) dimensions:     63    35   115
          Real-space ('12') slabs/node (min max mean):      2     3     2
         Recip-space ('23') slabs/node (min max mean):      0     1     0
********************************************************************************

********************* Fourier parallelisation information **********************
       Double grid (whole simulation cell) dimensions:    126    70   230
          Real-space ('12') slabs/node (min max mean):      5     6     5
         Recip-space ('23') slabs/node (min max mean):      1     2     1
********************************************************************************

Atom SCF Calculation for C  : Z (AE atom) =   6 : Z (PS atom) =   4
Config String: 2s2 2p2
Orbitals (num,occ):  2     2.00 2.00
Orbitals   (num,l):  2        0    1
Real-space Grid (nr,dr,rmax): 1293    0.0069659443    9.0000000000
Spherical Bessel Basis (nsws,lmax,cutoff):   37    2  161.4736382572
Confining potential (l,width,scale):  0    3.0000000000  100.0000000000
Confining potential (l,width,scale):  1    3.0000000000  100.0000000000
  1         -5.4795203654   -1.3252209296    4.5135257941   -1.6370402169
  2         -5.4480859746   -1.4027979239    4.4305951748   -1.6109819005
  3         -5.4553164790   -1.4212834043    4.4102618304   -1.6059039466
  4         -5.4627841133   -1.4247091338    4.4065122085   -1.6052907585
  5         -5.4662306655   -1.4266814823    4.4043715292   -1.6049352647
  6         -5.4679520247   -1.4277352742    4.4032348712   -1.6047493439
  7         -5.4688359568   -1.4282868030    4.4026432892   -1.6046541449
  8         -5.4692951245   -1.4285734530    4.4023374832   -1.6046056242
  9         -5.4695349887   -1.4287220785    4.4021797781   -1.6045809101
 10         -5.4696606791   -1.4287991022    4.4020984905   -1.6045683155
 11         -5.4697266650   -1.4288390363    4.4020565747   -1.6045618912
 12         -5.4697613504   -1.4288597596    4.4020349416   -1.6045586107
 13         -5.4697795998   -1.4288705262    4.4020237638   -1.6045569335
 14         -5.4697892089   -1.4288761271    4.4020179806   -1.6045560749
 15         -5.4697942720   -1.4288790448    4.4020149844   -1.6045556348
 16         -5.4697969415   -1.4288805668    4.4020134298   -1.6045554088
 17         -5.4697983498   -1.4288813619    4.4020126220   -1.6045552927
 18         -5.4697990933   -1.4288817779    4.4020122017   -1.6045552329
 19         -5.4697994860   -1.4288819957    4.4020119826   -1.6045552021
 20         -5.4697996936   -1.4288821100    4.4020118683   -1.6045551862
 21         -5.4697998034   -1.4288821701    4.4020118085   -1.6045551780
 22         -5.4697998614   -1.4288822017    4.4020117772   -1.6045551737
Atom SCF converged after  22 iterations to a total energy of     -5.46979986

Determining parallel strategy ...
... using space-filling curve
... NGWF load balancing: max     64;  min     64;  average     64
... Projector load balancing: max    128;  min    128;  average    128
... done
Calculating Ewald energy ...
              Ewald: real-space energy =    9554.967308
        Ewald: reciprocal-space energy =       0.031274
         Ewald: (sum_charge)**2 Energy =   11633.727624
         Ewald: (sum_charge**2) Energy =     919.726924
                          Ewald Energy =   -2998.455967
Basis initialisation ...... NGWF spheres initialised
... Projector spheres initialised
... NGWF tight boxes initialised
... Projector tight boxes initialised
... Tight-boxes gathered
... NGWF basis size (local,global):     694356  27887328
... PAW projector initialisation
... done

============================= Charge Augmentation ==============================
                           Aug box size:   11 x  11 x  11
================================================================================

========================== Sparse matrix information ===========================
                        Overlap matrix filling:  46.25%
                        Density kernel filling: 100.00%
              NGWF-Proj overlap matrix filling:  13.12%
                    Aug Overlap matrix filling:  49.38%
                    Hamiltonian matrix filling:  49.38%
                  NGWF diagonal matrix filling:   0.16%
                             KS matrix filling: 100.00% 
                           KSKS matrix filling: 100.00% 
================================================================================

Sparse matrix initialisation ... done
NGWF initialisation ...... done
============ Calculation of NGWF S^-1 using Hotelling algorithm ================ 
         Iteration  |  Frobenius norm and Maximum abs value    (of I-S*S_n^-1)   
               1       0.49310236E+02     0.97916233E+00
               2       0.48257450E+02     0.96009492E+00
               3       0.46632866E+02     0.92626970E+00
               4       0.44454854E+02     0.87098917E+00
               5       0.41786657E+02     0.78873246E+00
               6       0.38585977E+02     0.69797256E+00
               7       0.35063373E+02     0.64603574E+00
               8       0.31648618E+02     0.60285855E+00
               9       0.28213661E+02     0.56157845E+00
              10       0.24062621E+02     0.50244783E+00
              11       0.18628970E+02     0.40629502E+00
              12       0.12005843E+02     0.26999672E+00
              13       0.55961450E+01     0.12507429E+00
              14       0.14444161E+01     0.30071107E-01
              15       0.11586562E+00     0.21086807E-02
              16       0.93960731E-03     0.13297782E-04
              17       0.92045133E-07     0.80982787E-09
              18       0.88456595E-13     0.55511151E-14
================================================================================
Calculating core density ...
================================= Core Density =================================
               Core den box size:   21 x  21 x  21
================================================================================
 ... done
Up spin density kernel initialisation ...... done

Writing density kernel to file "3.085688_GO_manual_4x64graphite.dkn" ... done

>>> Optimising kernel for current NGWFs:

--------------------------- Ensemble-DFT optimisation --------------------------
Running ScaLAPACK on   40 processor(s).

--------------------------------------------------------------------------------
  Iter                              Commutator    Free_energy(A=E-TS)     DeltaA
#    0                          0.000058150758   -3652.78286605352605  -3.65E+03

Step                       =       0.381966011250
Energy                     =   -3652.782823267745
Entropy (-TS)              =      -0.000042785855
Free energy (A=E-TS)       =   -3652.782866053526
Est. 0K Energy 0.5*(E+A)   =   -3652.782844660635
Residual Non-orthogonality =       0.000000000000
Residual N_electrons       =       0.000000000074

Spin          Integrated_Ne            Fermi_level     Delta_Fermi_level
   1      2559.999999999709         0.255634678230              2.56E-01

                           Spin 1          
     Orb      H-eigenvalues     Occupancies
       1 |    -0.4707922700    1.0000000000 | 
                          ------
    1276 |     0.2231624173    0.9999647824 | 
    1277 |     0.2237633628    0.9999574235 | 
    1278 |     0.2237683311    0.9999573567 | 
    1279 |     0.2239960579    0.9999541774 | 
    1280 |     0.2245838954    0.9999448314 | 
                 - Gap at zero temperature -
    1281 |     0.2887945416    0.0000283443 | 
    1282 |     0.2888028980    0.0000282696 | 
    1283 |     0.2889597780    0.0000269033 | 
    1284 |     0.2890268963    0.0000263391 | 
    1285 |     0.2890352185    0.0000262700 | 
                          ------
    2560 |     1.0903399406    0.0000000000 | 

                       |  Abs_value |  Threshold | Converged
     Delta_Free_energy |   3.65E+03 |   1.00E-06 |        No
     Delta_Energy      |   3.65E+03 |   1.00E-04 |        No
     Delta_Entropy     |   4.28E-05 |   1.00E-04 |       Yes
     Commutator        |   5.82E-05 |   1.00E-05 |        No
     Delta_Fermi_level |   2.56E-01 |   1.00E-03 |        No

  Line search of the free energy minimum:
  Step_type        Step             Free_energy   Predicted_free_energy
.   Initial    0.000000    -3652.78286605352605
.    Trial1    0.381966    -3652.78625734410025
.    Trial2    0.618034    -3652.78548028620253
. Quadratic    0.416420    -3652.78627984621062    -3652.78628071997809

--------------------------------------------------------------------------------
  Iter                              Commutator    Free_energy(A=E-TS)     DeltaA
#    1                          0.000023659712   -3652.78627984621062  -3.41E-03

Step                       =       0.416420163557
Energy                     =   -3652.786238314084
Entropy (-TS)              =      -0.000041532139
Free energy (A=E-TS)       =   -3652.786279846211
Est. 0K Energy 0.5*(E+A)   =   -3652.786259080147
Residual Non-orthogonality =       0.000000000000
Residual N_electrons       =       0.000000000012

Spin          Integrated_Ne            Fermi_level     Delta_Fermi_level
   1      2559.999999999952         0.258527234742              2.89E-03

                           Spin 1          
     Orb      H-eigenvalues     Occupancies
       1 |    -0.4685700368    1.0000000000 | 
                          ------
    1276 |     0.2260280787    0.9999650802 | 
    1277 |     0.2265035914    0.9999594229 | 
    1278 |     0.2265167121    0.9999592545 | 
    1279 |     0.2268834201    0.9999542525 | 
    1280 |     0.2273544923    0.9999469156 | 
                 - Gap at zero temperature -
    1281 |     0.2917870487    0.0000274637 | 
    1282 |     0.2918096530    0.0000272683 | 
    1283 |     0.2919907298    0.0000257529 | 
    1284 |     0.2920583344    0.0000252090 | 
    1285 |     0.2920832020    0.0000250118 | 
                          ------
    2560 |     1.0955947368    0.0000000000 | 

                       |  Abs_value |  Threshold | Converged
     Delta_Free_energy |   3.41E-03 |   1.00E-06 |        No
     Delta_Energy      |   3.42E-03 |   1.00E-04 |        No
     Delta_Entropy     |   1.25E-06 |   1.00E-04 |       Yes
     Commutator        |   2.37E-05 |   1.00E-05 |        No
     Delta_Fermi_level |   2.89E-03 |   1.00E-03 |        No

  Line search of the free energy minimum:
  Step_type        Step             Free_energy   Predicted_free_energy
.   Initial    0.000000    -3652.78627984621062
.    Trial1    0.416420    -3652.78672641513504
.    Trial2    0.639328    -3652.78626815165080
. Quadratic    0.317795    -3652.78677453959881    -3652.78677400943707

--------------------------------------------------------------------------------
  Iter                              Commutator    Free_energy(A=E-TS)     DeltaA
#    2                          0.000016811651   -3652.78677453959881  -4.95E-04

Step                       =       0.317794723956
Energy                     =   -3652.786733787199
Entropy (-TS)              =      -0.000040752294
Free energy (A=E-TS)       =   -3652.786774539599
Est. 0K Energy 0.5*(E+A)   =   -3652.786754163399
Residual Non-orthogonality =       0.000000000000
Residual N_electrons       =      -0.000000000107

Spin          Integrated_Ne            Fermi_level     Delta_Fermi_level
   1      2560.000000000410         0.259722794030              1.20E-03

                           Spin 1          
     Orb      H-eigenvalues     Occupancies
       1 |    -0.4675941334    1.0000000000 | 
                          ------
    1276 |     0.2271479643    0.9999659047 | 
    1277 |     0.2276480920    0.9999600719 | 
    1278 |     0.2276629915    0.9999598836 | 
    1279 |     0.2279906231    0.9999555112 | 
    1280 |     0.2284878367    0.9999479482 | 
                 - Gap at zero temperature -
    1281 |     0.2930496360    0.0000268885 | 
    1282 |     0.2930735093    0.0000266866 | 
    1283 |     0.2932529763    0.0000252163 | 
    1284 |     0.2933303591    0.0000246076 | 
    1285 |     0.2933565876    0.0000244047 | 
                          ------
    2560 |     1.0979046660    0.0000000000 | 

                       |  Abs_value |  Threshold | Converged
     Delta_Free_energy |   4.95E-04 |   1.00E-06 |        No
     Delta_Energy      |   4.95E-04 |   1.00E-04 |        No
     Delta_Entropy     |   7.80E-07 |   1.00E-04 |       Yes
     Commutator        |   1.68E-05 |   1.00E-05 |        No
     Delta_Fermi_level |   1.20E-03 |   1.00E-03 |        No

  Line search of the free energy minimum:
  Step_type        Step             Free_energy   Predicted_free_energy
.   Initial    0.000000    -3652.78677453959881
.    Trial1    0.317795    -3652.78696399750743
.    Trial2    0.578374    -3652.78655571750778
. Quadratic    0.238604    -3652.78698761084888    -3652.78698745047450

--------------------------------------------------------------------------------
  Iter                              Commutator    Free_energy(A=E-TS)     DeltaA
#    3                          0.000011658475   -3652.78698761084888  -2.13E-04

Step                       =       0.238603537160
Energy                     =   -3652.786947237211
Entropy (-TS)              =      -0.000040373772
Free energy (A=E-TS)       =   -3652.786987610849
Est. 0K Energy 0.5*(E+A)   =   -3652.786967424030
Residual Non-orthogonality =       0.000000000000
Residual N_electrons       =       0.000000000134

Spin          Integrated_Ne            Fermi_level     Delta_Fermi_level
   1      2559.999999999483         0.260338777641              6.16E-04

                           Spin 1          
     Orb      H-eigenvalues     Occupancies
       1 |    -0.4670911318    1.0000000000 | 
                          ------
    1276 |     0.2277319690    0.9999662473 | 
    1277 |     0.2282346196    0.9999604416 | 
    1278 |     0.2282496652    0.9999602532 | 
    1279 |     0.2285709110    0.9999560098 | 
    1280 |     0.2290707586    0.9999484888 | 
                 - Gap at zero temperature -
    1281 |     0.2936971315    0.0000266223 | 
    1282 |     0.2937210515    0.0000264220 | 
    1283 |     0.2939013152    0.0000249600 | 
    1284 |     0.2939768419    0.0000243718 | 
    1285 |     0.2940034239    0.0000241680 | 
                          ------
    2560 |     1.0990939723    0.0000000000 | 

                       |  Abs_value |  Threshold | Converged
     Delta_Free_energy |   2.13E-04 |   1.00E-06 |        No
     Delta_Energy      |   2.13E-04 |   1.00E-04 |        No
     Delta_Entropy     |   3.79E-07 |   1.00E-04 |       Yes
     Commutator        |   1.17E-05 |   1.00E-05 |        No
     Delta_Fermi_level |   6.16E-04 |   1.00E-03 |       Yes

  Line search of the free energy minimum:
  Step_type        Step             Free_energy   Predicted_free_energy
.   Initial    0.000000    -3652.78698761084888
.    Trial1    0.238604    -3652.78708915196103
.    Trial2    0.529431    -3652.78701025017381
. Quadratic    0.280959    -3652.78709149592123    -3652.78709151332623

--------------------------------------------------------------------------------
  Iter                              Commutator    Free_energy(A=E-TS)     DeltaA
[...]
 C   275 -- C   555       -0.10      5.37000
 C   274 -- C   554       -0.10      5.37000
 C   273 -- C   553       -0.10      5.37000
 C   272 -- C   552       -0.10      5.37000
 C   271 -- C   551       -0.10      5.37000
 C   270 -- C   550       -0.10      5.37000
 C   269 -- C   549       -0.10      5.37000
 C   268 -- C   548       -0.10      5.37000
 C   267 -- C   547       -0.10      5.37000
 C   266 -- C   546       -0.10      5.37000
 C   130 -- C   465       -0.10      5.37000
 C   129 -- C   464       -0.10      5.37000
 C   128 -- C   463       -0.10      5.37000
 C   127 -- C   462       -0.10      5.37000
 C   126 -- C   461       -0.10      5.37000
 C   240 -- C   525       -0.10      5.37000
 C   239 -- C   524       -0.10      5.37000
 C   238 -- C   523       -0.10      5.37000
 C   237 -- C   522       -0.10      5.37000
 C   236 -- C   521       -0.10      5.37000
 C    23 -- C   478       -0.10      5.37202
 C    49 -- C   469       -0.10      5.37202
 C    48 -- C   468       -0.10      5.37202
 C    47 -- C   467       -0.10      5.37202
 C    22 -- C   477       -0.10      5.37202
 C    46 -- C   466       -0.10      5.37202
 C    21 -- C   476       -0.10      5.37202
 C    25 -- C   480       -0.10      5.37202
 C    24 -- C   479       -0.10      5.37202
 C    50 -- C   470       -0.10      5.37202
 C    24 -- C   449       -0.10      5.37202
 C     6 -- C   416       -0.10      5.37202
 C    23 -- C   448       -0.10      5.37202
 C    22 -- C   447       -0.10      5.37202
 C    10 -- C   470       -0.10      5.37202
 C     5 -- C   450       -0.10      5.37202
 C    21 -- C   446       -0.10      5.37202
 C    10 -- C   420       -0.10      5.37202
 C     9 -- C   469       -0.10      5.37202
 C     9 -- C   419       -0.10      5.37202
 C     8 -- C   468       -0.10      5.37202
 C     4 -- C   449       -0.10      5.37202
 C     8 -- C   418       -0.10      5.37202
 C   285 -- C   580       -0.10      5.37202
 C   284 -- C   579       -0.10      5.37202
 C   283 -- C   578       -0.10      5.37202
 C   282 -- C   577       -0.10      5.37202
 C   281 -- C   576       -0.10      5.37202
 C     2 -- C   447       -0.10      5.37202
 C     7 -- C   467       -0.10      5.37202
 C   260 -- C   605       -0.10      5.37202
 C   259 -- C   604       -0.10      5.37202
 C   258 -- C   603       -0.10      5.37202
 C   257 -- C   602       -0.10      5.37202
 C   256 -- C   601       -0.10      5.37202
 C     7 -- C   417       -0.10      5.37202
 C     1 -- C   446       -0.10      5.37202
 C     6 -- C   466       -0.10      5.37202
 C    25 -- C   450       -0.10      5.37202
 C     3 -- C   448       -0.10      5.37202
 C   219 -- C   569       -0.10      5.37202
 C   218 -- C   568       -0.10      5.37202
 C   217 -- C   567       -0.10      5.37202
 C   216 -- C   566       -0.10      5.37202
 C   250 -- C   540       -0.10      5.37202
 C   249 -- C   539       -0.10      5.37202
 C   248 -- C   538       -0.10      5.37202
 C   247 -- C   537       -0.10      5.37202
 C   246 -- C   536       -0.10      5.37202
 C   220 -- C   570       -0.10      5.37202
 C   205 -- C   550       -0.10      5.37202
 C   204 -- C   549       -0.10      5.37202
 C   203 -- C   548       -0.10      5.37202
 C   202 -- C   547       -0.10      5.37202
 C   201 -- C   546       -0.10      5.37202
 C    95 -- C   365       -0.10      5.37202
 C    94 -- C   364       -0.10      5.37202
 C    93 -- C   363       -0.10      5.37202
 C    92 -- C   362       -0.10      5.37202
 C    91 -- C   361       -0.10      5.37202
 C    65 -- C   395       -0.10      5.37202
 C    64 -- C   394       -0.10      5.37202
 C    63 -- C   393       -0.10      5.37202
 C    30 -- C   355       -0.10      5.37202
 C    62 -- C   392       -0.10      5.37202
 C    61 -- C   391       -0.10      5.37202
 C    29 -- C   354       -0.10      5.37202
 C   260 -- C   550       -0.10      5.37202
 C   259 -- C   549       -0.10      5.37202
 C    28 -- C   353       -0.10      5.37202
 C   258 -- C   548       -0.10      5.37202
 C   257 -- C   547       -0.10      5.37202
 C   256 -- C   546       -0.10      5.37202
 C    27 -- C   352       -0.10      5.37202
 C    26 -- C   351       -0.10      5.37202
 C    55 -- C   335       -0.10      5.37202
 C    54 -- C   334       -0.10      5.37202
 C    53 -- C   333       -0.10      5.37202
 C   230 -- C   580       -0.10      5.37202
 C   230 -- C   525       -0.10      5.37202
 C   229 -- C   579       -0.10      5.37202
 C   229 -- C   524       -0.10      5.37202
 C   228 -- C   578       -0.10      5.37202
 C    52 -- C   332       -0.10      5.37202
 C   228 -- C   523       -0.10      5.37202
 C   227 -- C   577       -0.10      5.37202
 C   227 -- C   522       -0.10      5.37202
 C   226 -- C   576       -0.10      5.37202
 C   226 -- C   521       -0.10      5.37202
 C    51 -- C   331       -0.10      5.37202
 C   220 -- C   515       -0.10      5.37202
 C   219 -- C   514       -0.10      5.37202
 C   218 -- C   513       -0.10      5.37202
 C   217 -- C   512       -0.10      5.37202
 C   216 -- C   511       -0.10      5.37202
 C   195 -- C   540       -0.10      5.37202
 C   195 -- C   500       -0.10      5.37202
 C   194 -- C   539       -0.10      5.37202
 C   194 -- C   499       -0.10      5.37202
 C   193 -- C   538       -0.10      5.37202
 C   193 -- C   498       -0.10      5.37202
 C   192 -- C   537       -0.10      5.37202
 C   192 -- C   497       -0.10      5.37202
 C   191 -- C   536       -0.10      5.37202
 C   191 -- C   496       -0.10      5.37202
 C   180 -- C   515       -0.10      5.37202
 C   179 -- C   514       -0.10      5.37202
 C   178 -- C   513       -0.10      5.37202
 C   177 -- C   512       -0.10      5.37202
 C   176 -- C   511       -0.10      5.37202
 C   150 -- C   440       -0.10      5.37202
 C   149 -- C   439       -0.10      5.37202
 C   148 -- C   438       -0.10      5.37202
 C   147 -- C   437       -0.10      5.37202
 C   146 -- C   436       -0.10      5.37202
 C   135 -- C   460       -0.10      5.37202
 C   134 -- C   459       -0.10      5.37202
 C   133 -- C   458       -0.10      5.37202
 C   132 -- C   457       -0.10      5.37202
 C   131 -- C   456       -0.10      5.37202
 C    11 -- C   331       -0.10      5.37202
 C    95 -- C   425       -0.10      5.37202
 C    94 -- C   424       -0.10      5.37202
 C    93 -- C   423       -0.10      5.37202
 C    92 -- C   422       -0.10      5.37202
 C    91 -- C   421       -0.10      5.37202
 C    85 -- C   355       -0.10      5.37202
 C    40 -- C   365       -0.10      5.37202
 C    84 -- C   354       -0.10      5.37202
 C    83 -- C   353       -0.10      5.37202
 C    82 -- C   352       -0.10      5.37202
 C    39 -- C   364       -0.10      5.37202
 C    81 -- C   351       -0.10      5.37202
 C    38 -- C   363       -0.10      5.37202
 C    37 -- C   362       -0.10      5.37202
 C    36 -- C   361       -0.10      5.37202
 C    15 -- C   335       -0.10      5.37202
 C    65 -- C   345       -0.10      5.37202
 C    64 -- C   344       -0.10      5.37202
 C    63 -- C   343       -0.10      5.37202
 C    30 -- C   325       -0.10      5.37202
 C    62 -- C   342       -0.10      5.37202
 C    14 -- C   334       -0.10      5.37202
 C    61 -- C   341       -0.10      5.37202
 C    29 -- C   324       -0.10      5.37202
 C    28 -- C   323       -0.10      5.37202
 C    13 -- C   333       -0.10      5.37202
 C    27 -- C   322       -0.10      5.37202
 C   120 -- C   395       -0.10      5.37202
 C    55 -- C   385       -0.10      5.37202
 C   119 -- C   394       -0.10      5.37202
 C   118 -- C   393       -0.10      5.37202
 C   117 -- C   392       -0.10      5.37202
 C    54 -- C   384       -0.10      5.37202
 C    26 -- C   321       -0.10      5.37202
 C   116 -- C   391       -0.10      5.37202
 C    53 -- C   383       -0.10      5.37202
 C    12 -- C   332       -0.10      5.37202
 C    52 -- C   382       -0.10      5.37202
 C    51 -- C   381       -0.10      5.37202
 C   106 -- C   436       -0.10      5.37202
 C   106 -- C   376       -0.10      5.37202
 C    80 -- C   410       -0.10      5.37202
 C    79 -- C   409       -0.10      5.37202
 C    78 -- C   408       -0.10      5.37202
 C    77 -- C   407       -0.10      5.37202
 C    76 -- C   406       -0.10      5.37202
 C   135 -- C   410       -0.10      5.37202
 C   134 -- C   409       -0.10      5.37202
 C   133 -- C   408       -0.10      5.37202
 C   132 -- C   407       -0.10      5.37202
 C   131 -- C   406       -0.10      5.37202
 C   110 -- C   440       -0.10      5.37202
 C   110 -- C   380       -0.10      5.37202
 C   109 -- C   439       -0.10      5.37202
 C   109 -- C   379       -0.10      5.37202
 C   108 -- C   438       -0.10      5.37202
 C   108 -- C   378       -0.10      5.37202
 C   107 -- C   437       -0.10      5.37202
 C   107 -- C   377       -0.10      5.37202
 C   215 -- C   635       -0.10      5.38000
 C   214 -- C   634       -0.10      5.38000
 C   213 -- C   633       -0.10      5.38000
 C   212 -- C   632       -0.10      5.38000
 C   211 -- C   631       -0.10      5.38000
 C   190 -- C   620       -0.10      5.38000
 C   189 -- C   619       -0.10      5.38000
 C   188 -- C   618       -0.10      5.38000
 C   187 -- C   617       -0.10      5.38000
 C   186 -- C   616       -0.10      5.38000
 C   175 -- C   595       -0.10      5.38000
 C   174 -- C   594       -0.10      5.38000
 C   173 -- C   593       -0.10      5.38000
 C   172 -- C   592       -0.10      5.38000
 C   171 -- C   591       -0.10      5.38000
 C   245 -- C   640       -0.10      5.38000
 C   244 -- C   639       -0.10      5.38000
 C   243 -- C   638       -0.10      5.38000
 C   242 -- C   637       -0.10      5.38000
 C   241 -- C   636       -0.10      5.38000
==================================================


=================== Orbital energy and occupancy information ===================

      Total number of orbitals:    2560
        Occupancy sum (kernel):    1280.000000000
   Occupancy sum (eigenvalues):    1280.000000000
                 HOMO-LUMO gap:       0.062061795 Eh
                 Mid-gap level:       0.296296184 Eh

                        Orbital | Energy (Eh) | Occupancy
                            1    -0.433325399   1.0000000
                        .......   ...........   .........
                         1271     0.260601494   0.9999852
                         1272     0.260623767   0.9999851
                         1273     0.261070423   0.9999829
                         1274     0.261092600   0.9999828
                         1275     0.264820344   0.9999441
                         1276     0.264823352   0.9999440
                         1277     0.264860624   0.9999433
                         1278     0.265247455   0.9999360
                         1279     0.265250425   0.9999360
                         1280     0.265265287   0.9999356
                        ....... -- gap at 0K -- .........
                         1281     0.327327082   0.0000478
                         1282     0.327335061   0.0000477
                         1283     0.327584044   0.0000441
                         1284     0.327592015   0.0000440
                         1285     0.328633941   0.0000318
                         1286     0.328641035   0.0000317
                         1287     0.328910723   0.0000291
                         1288     0.328917795   0.0000290
                         1289     0.329460630   0.0000245
                         1290     0.329745364   0.0000224
                        .......   ...........   .........
                         2560     1.189015917   0.0000000

================================================================================

===================== Writing canonical molecular orbitals =====================
| Orbital  Energy (eV)  Norm     |
| HOMO      7.21823574  1.000000 | Writing "3.085688_GO_manual_4x64graphite_HOMO.cube" ... done
Writing "3.085688_GO_manual_4x64graphite_HOMO.dx" ... done
| LUMO      8.90702312  1.000000 | Writing "3.085688_GO_manual_4x64graphite_LUMO.cube" ... done
Writing "3.085688_GO_manual_4x64graphite_LUMO.dx" ... done
================================================================================
 
===================== Density of States (DOS) calculation ======================
Writing "3.085688_GO_manual_4x64graphite_DOS.txt" ...  done
================================================================================
 
Writing bands to file "3.085688_GO_manual_4x64graphite.val_bands" ... done
 
================ Projected Density of States (pDOS) calculation ================
 
Constructing AM resolved functions  ...... done
Writing NGWF plot files in formats: CUBE DX ...  done
 
Performing overlap integrals ...  done
 
Computing pDOS weights ...  done
 
All bands spilling parameter =   3.84 %
Occupancy-weighted spilling parameter =   0.80 %
 
 => Outputting data for OptaDOS <=
 
Writing pDOS weights to file "3.085688_GO_manual_4x64graphite.val_pdos_bin" ... done
 
Writing band gradients to file "3.085688_GO_manual_4x64graphite.val_dome_bin" ... done
 
Writing Castep output cell file to "3.085688_GO_manual_4x64graphite-out.cell" ... done
 
 => Computing Gaussian smeared pDOS <= 
Writing "3.085688_GO_manual_4x64graphite_PDOS.txt" ...  done
 
 => Computing Occupancy-weighted Gaussian smeared pDOS <= 
Writing "3.085688_GO_manual_4x64graphite_occ_PDOS.txt" ...  done
  => Band centres: 
 S band centre of group 1:  -13.843700 eV
 P band centre of group 1:   -6.746803 eV
  Band centres done. <=
  => Integrated number of electrons in each AM band: 
 S num electrons of group 1:  576.034462
 P num electrons of group 1: 1963.467336
  Integrated number of electrons done. <=
================================================================================

------------------------------ TIMING INFORMATION ------------------------------
AVERAGE TIME:    4688.607s on     40 node(s)                                    
TOTAL TIME:      4688.610s on     40 node(s)                                    
================= AVERAGE TIMINGS FROM ALL NODES (CUMULATIVE) ==================
|| TAG                                    #calls    cpu time   %total  Gflops ||
|| work_imbalance                       :     1        0.00s   0.000%  ------ ||
|| paw_tcore_hartree_on_grid            :     1        0.01s   0.000%  ------ ||
|| paw_tcore_density                    :     1        0.01s   0.000%  ------ ||
|| paw_sphere_density_on_grid           :     1        0.01s   0.000%  ------ ||
|| sparse_set_to_garbage                :   183        0.04s   0.001%  ------ ||
|| pseudo_make_structure_factor         :     1        0.05s   0.001%  ------ ||
|| paw_dij_hartree                      :   425        0.05s   0.001%  ------ ||
|| basis_extract_function_from_box      :  2048        0.09s   0.002%  ------ ||
|| paw_species_calc_proj_prec_mat       :     1        0.12s   0.002%  ------ ||
|| density_init_guess_real              :     1        0.19s   0.004%  ------ ||
|| paw_dataset_init                     :     1        0.19s   0.004%  ------ ||
|| ngwfs_initialise_from_radial         :     2        0.66s   0.014%  ------ ||
|| sparse_init                          :     1        0.97s   0.021%  ------ ||
|| restart_kernel_write                 :    17        1.07s   0.023%  ------ ||
|| dense_normal_eigensolve              :     1        1.10s   0.023%  ------ ||
|| hartree_on_grid                      :   319        1.91s   0.041%  ------ ||
|| ewald_calculate_energy               :     1        2.15s   0.046%  ------ ||
|| projectors_init_fftbox_recip         :   161        2.98s   0.064%  ------ ||
|| basis_copy_function_to_box           : 29952        5.66s   0.121%  ------ ||
|| fourier_apply_box_pair               :  3040        6.25s   0.133% 426.311 ||
|| sw_init                              :     1        6.73s   0.144%  ------ ||
|| augmentation_screen_dij              :   326        7.26s   0.155%  ------ ||
|| sparse_embed_hotelling_invert_embed  :    31        9.55s   0.204%  ------ ||
|| ngwf_gradient_coeffs                 :    16       12.79s   0.273%  ------ ||
|| cell_grid_extract_box_real           : 12716       15.31s   0.326%  ------ ||
|| fourier_apply_cell_backward          :  9860       18.23s   0.389%  58.072 ||
|| fourier_apply_cell_forward           :  9223       19.91s   0.425%  49.735 ||
|| sparse_trace                         :  3872       20.83s   0.444%  ------ ||
|| cell_grid_deposit_box_real           : 41008       26.41s   0.563%  ------ ||
|| paw_dij_xc                           :   425       28.33s   0.604%  ------ ||
|| aug_nonlocal_mat                     :   409       43.43s   0.926%  ------ ||
|| density_fftbox_deposit_to_cell       : 20416       47.65s   1.016%  ------ ||
|| eigenstates_pdos                     :     1       48.44s   1.033%  ------ ||
|| eigenstates_calculate                :     1       52.22s   1.114%  ------ ||
|| augmentation_density_on_grid         :   319       60.95s   1.300%  ------ ||
|| hamiltonian_energy_components        :     4       69.95s   1.492%  ------ ||
|| function_ops_brappd_ketppd           :    64       71.47s   1.524%  ------ ||
|| nlxc_vdw_energy                      :   636       77.89s   1.661%  ------ ||
|| projectors_func_ovlp_box             :    32       80.44s   1.716%  ------ ||
|| xc_energy_potential                  :   318       88.30s   1.883%  ------ ||
|| properties_calculate                 :     1       92.08s   1.964%  ------ ||
|| integrals_kinetic                    :    31      121.87s   2.599%  ------ ||
|| restart_ngwfs_tightbox_output        :    15      128.70s   2.745%  ------ ||
|| dense_eigensolve                     :   283      138.82s   2.961%  ------ ||
|| potential_apply_to_ngwf_batch        :   404      157.83s   3.366%  ------ ||
|| sparse_product                       :  3827      170.95s   3.646%  ------ ||
|| basis_dot_function_with_box          : 10.21M     278.74s   5.945%  ------ ||
|| projectors_gradient_batch            :    64      287.51s   6.132%  ------ ||
|| edft_diag_ngwf_ham                   :   282      312.22s   6.659%  ------ ||
|| fourier_apply_box                    : 93712      322.55s   6.879% 840.618 ||
|| density_fftbox_interpolate_multiply  : 20416      390.09s   8.320%  ------ ||
|| integrals_locpot_mat_els_batch       :   404      401.12s   8.555%  ------ ||
|| projectors_grad_precond_batch        :    64      411.30s   8.772%  ------ ||
|| density_batch_interp_deposit         :  1276      484.64s  10.337%  ------ ||
|| integrals_locpot_dbl_grid            :   101      561.09s  11.967%  ------ ||
|| edft_apply_smearing_operator         :   282      610.86s  13.029%  ------ ||
|| ngwf_gradient_build_batch            :    64      747.31s  15.939%  ------ ||
|| basis_add_function_to_box            : 29.02M     757.65s  16.159%  ------ ||
|| ngwf_gradient_batch                  :    64     1014.68s  21.641%  ------ ||
|| ngwf_gradient_lnv                    :    16     1046.74s  22.325%  ------ ||
|| density_batch_row_sums               :  1276     1138.58s  24.284%  ------ ||
|| density_on_dbl_grid                  :   319     1642.35s  35.029%  ------ ||
|| hamiltonian_lhxc_calculate           :   313     1765.82s  37.662%  ------ ||
|| edft_calculate                       :    16     2925.77s  62.402%  ------ ||
|| ngwf_cg_optimise                     :     1     4570.76s  97.487%  ------ ||
|| total_time                           :     1     4688.61s 100.000%  ------ ||
================================================================================
Overhead of generating timer report: 
- 0 ms averaging over threads,
- 5 ms ensuring consistency across MPI ranks,
- 0 ms printing in order.

Job completed: 24-02-2020 21:56 (-0000)

