 +---------------------------------------------------------------+
 |                                                               |
 |        ####### #     # ####### ####### ####### ######         |
 |        #     # ##    # #          #    #       #     #        |
 |        #     # # #   # #          #    #       #     #        |
 |        #     # #  #  # #####      #    #####   ######         |
 |        #     # #   # # #          #    #       #              |
 |        #     # #    ## #          #    #       #              |
 |        ####### #     # #######    #    ####### #              |
 |                                                               |
 |        Linear-Scaling Ab Initio Total Energy Program          |
 |                                                               |
 |          Release for academic collaborators of ODG            |
 |                                             Version 5.3.2.12  |
 |                                                               |
 +---------------------------------------------------------------+
 |                                                               |
 |  Authors:                                                     |
 |  Jacek Dziedzic, Peter D. Haynes, Nicholas D. M. Hine,        |
 |  Arash. A. Mostofi, Mike C. Payne and Chris-Kriton Skylaris   |
 |                                                               |
 |  Contributors:                                                |
 |  J. Aarons, L. Andrinopoulos, P. W. Avraam, R. A. Bell,       |
 |  A. Bhandari, G. A. Bramley, R. J. Charlton, S. J. Clark,     |
 |  R. J. Clements, G. C. Constantinescu, F. Corsetti,           |
 |  N. Corsini, O. Dieguez, S. M. M. Dubois, K. K. B. Duff,      |
 |  J. M. Escartin, A. Greco, H. Helal, Q. O. Hill, L. P. Lee,   |
 |  J.-H. Li, E. B. Linscott, G. Moynihan, D. D. O`Regan,        |
 |  O. K. Okan, M. J. S. Phipps, C. J. Pickard,                  |
 |  J. C. A. Prentice, M. I. J. Probert, L. E. Ratcliff,         |
 |  M. Robinson, A. Ruiz Serrano, J. S. Spencer, E. W. Tait,     |
 |  G. Teobaldi, D. Turban, V. Vitale, K. A. Wilkinson,          |
 |  C. Weber, J. C. Womack, N. Yeung and T. J. Zuehlsdorff       |
 |                                                               |
 |                                   Copyright (c) 2004-2020     |
 |                                                               |
 |  Please cite:                                                 |
 |  "Introducing ONETEP: Linear-scaling density functional       |
 |   simulations on parallel computers".                         |
 |   C.-K. Skylaris, P. D. Haynes, A. A. Mostofi, M. C. Payne.   |
 |   J. Chem. Phys. 122 084119 (2005).                           |
 |                                                               |
 |          in all publications arising from your use of ONETEP. |
 |                                                               |
 +---------------------------------------------------------------+
 |                                                               |
 |   ONETEP is based on developments described in the following  |
 |   publications:                                               |
 |                                                               |
 |  "Nonorthogonal generalized Wannier function pseudopotential  |
 |   plane-wave method".                                         |
 |   C.-K. Skylaris, A. A. Mostofi, P. D. Haynes, O. Dieguez,    |
 |   M. C. Payne.                                                |
 |   Phys. Rev. B 66 035119 (2002).                              |
 |                                                               |
 |  "Preconditioned iterative minimization for linear-scaling    |
 |   electronic structure calculations".                         |
 |   A. A. Mostofi, P. D. Haynes, C.-K. Skylaris, M. C. Payne.   |
 |   J. Chem. Phys. 119(17), pp.8842-8848 (2003).                |
 |                                                               |
 |  "Total-energy calculations on a real space grid with         |
 |   localized functions and a plane-wave basis".                |
 |   A. A. Mostofi, C.-K. Skylaris, P. D. Haynes, M. C. Payne.   |
 |   Comput. Phys. Commun. 147, pp.788-802 (2002).               |
 |                                                               |
 |  "Accurate kinetic energy evaluation in electronic structure  |
 |   calculations with localized functions on real space grids"  |
 |   C.-K. Skylaris, A. A. Mostofi, P. D. Haynes, C. J. Pickard, |
 |   M. C. Payne.                                                |
 |   Comput. Phys. Commun. 140, pp.315-322 (2001).               |
 |                                                               |
 |  "Accurate ionic forces and geometry optimization in linear-  |
 |   scaling density-functional theory with local orbitals"      |
 |   N. D. M. Hine, M. Robinson, P. D. Haynes, C.-K. Skylaris,   |
 |   M. C. Payne, and A. A. Mostofi.                             |
 |   Phys. Rev. B 83 195102 (2011).                              |
 |                                                               |
 +---------------------------------------------------------------+

Job started: 24-02-2020 21:56 (-0000)
 
Reading parameters from file "3.2735064_GO_manual_4x64graphite.dat" ...

WARNING: "cutoff_energy" not specified, but "psinc_spacing" specified.
         Using the latter to set the KE cutoff energy to  732.32021eV,
         thus *overriding* the default.

... done

If your calculation crashes here, before "Checking processes and threads..."
is displayed, then your stack size is insufficient.
If so, use "ulimit -s unlimited" at runtime.
You can disable this check with "check_stack_size F".

Checking processes and threads...
   Determining the default number of threads...
      No default threads set at compilation time: defaulting to 1.
      OpenMP library call suggests 4 threads.
      Hybrid MPI-OpenMP compilation detected.
      Number of MPI processes > 1.
      OMP_NUM_THREADS environment variable present and
      its value matches the one obtained from the OpenMP library call.
      Using this value as default.
      Default threads: 4
      Default applies to threads_max and threads_num_fftboxes.
      Settings in the input file override this default.
   ... done

   Running with 40 MPI processes.
   There are 10 MPI processes running on the same node as the root process.
   Each MPI process is using: 
               1 threads for simulation cell FFTs.
               1 threads for parallel FFT box operations.
               4 threads for loops over batched FFT box operations.
               4 threads in other parallel regions.
... done

Basic input checks...
Resetting ngwf_cg_rotate to TRUE for EDFT calculations
... done

Reading geometry and species blocks from file "3.2735064_GO_manual_4x64graphite.dat" ...
    
  PSINC grid spacing along a1 set to   0.511215680000a0 from input file.
  PSINC grid spacing along a2 set to   0.531284090000a0 from input file.
  PSINC grid spacing along a3 set to   0.507052730000a0 from input file.
  Number of PPD points along a3 set to 1.  This is 
  the default value, it may have been provided also in the input file.
... done
 Writing xyz coordinates to file "3.2735064_GO_manual_4x64graphite.xyz" ... done


--------------------------------------------------------------------------------
---------------------------------- INPUT FILE ----------------------------------
--------------------------------------------------------------------------------

task : singlepoint                                                              
do_properties : true                                                            
dx_format T                                                                     
edft T                                                                          
output_detail VERBOSE                                                           
write_xyz T                                                                     
xc_functional OPTPBE                                                            
PSINC_SPACING 0.51121568 0.53128409 0.50705273                                  
paw T                                                                           
pdos_max_l = 2                                                                  
dos_smear  0.1 eV                                                               
popn_calculate T                                                                
PDOS_PSEUDOATOMIC T                                                             
PDOS_REDUCE_SWS F                                                               
PDOS_CONSTRUCT_BASIS F                                                          
PDOS_LOWDIN T                                                                   
PDOS_ORTH_ATOM_BLOCKS F                                                         
PDOS_LCAO_OPTIMIZE F                                                            
pdos_optados_output T                                                           
homo_plot 0                                                                     
lumo_plot 0                                                                     
homo_dens_plot -1                                                               
lumo_dens_plot -1                                                               
%BLOCK SPECIES                                                                  
C C 6 4 9.0                                                                     
%ENDBLOCK SPECIES                                                               
%BLOCK SPECIES_POT                                                              
C "~/pp/paw/c_pbe_abinit.paw"                                                   
%ENDBLOCK SPECIES_POT                                                           
%BLOCK SPECIES_ATOMIC_SET                                                       
C "SOLVE conf=2s2 2p2"                                                          
%ENDBLOCK SPECIES_ATOMIC_SET                                                    
%BLOCK LATTICE_CART                                                             
32.21  0.00  0.00                                                               
0.00 18.59  0.00                                                                
0.00  0.00 61.86                                                                
%ENDBLOCK LATTICE_CART                                                          
%BLOCK POSITIONS_ABS                                                            
C  0.00  0.00  3.09                                                             
C  0.00  0.00 15.47                                                             
C  0.00  0.00 27.84                                                             
C  0.00  0.00 40.21                                                             
C  0.00  0.00 52.58                                                             
C  0.00  4.65  3.09                                                             
C  0.00  4.65 15.47                                                             
C  0.00  4.65 27.84                                                             
C  0.00  4.65 40.21                                                             
C  0.00  4.65 52.58                                                             
C  4.03  2.32  3.09                                                             
C  4.03  2.32 15.47                                                             
C  4.03  2.32 27.84                                                             
C  4.03  2.32 40.21                                                             
C  4.03  2.32 52.58                                                             
C  8.05  0.00  3.09                                                             
C  8.05  0.00 15.47                                                             
C  8.05  0.00 27.84                                                             
C  8.05  0.00 40.21                                                             
C  8.05  0.00 52.58                                                             
C  0.00  9.30  3.09                                                             
C  0.00  9.30 15.47                                                             
C  0.00  9.30 27.84                                                             
C  0.00  9.30 40.21                                                             
C  0.00  9.30 52.58                                                             
C  4.03  6.97  3.09                                                             
C  4.03  6.97 15.47                                                             
C  4.03  6.97 27.84                                                             
C  4.03  6.97 40.21                                                             
C  4.03  6.97 52.58                                                             
C  8.05  4.65  3.09                                                             
C  8.05  4.65 15.47                                                             
C  8.05  4.65 27.84                                                             
C  8.05  4.65 40.21                                                             
C  8.05  4.65 52.58                                                             
C 12.08  2.32  3.09                                                             
C 12.08  2.32 15.47                                                             
C 12.08  2.32 27.84                                                             
C 12.08  2.32 40.21                                                             
C 12.08  2.32 52.58                                                             
C 16.10  0.00  3.09                                                             
C 16.10  0.00 15.47                                                             
C 16.10  0.00 27.84                                                             
C 16.10  0.00 40.21                                                             
C 16.10  0.00 52.58                                                             
C  0.00 13.95  3.09                                                             
C  0.00 13.95 15.47                                                             
C  0.00 13.95 27.84                                                             
C  0.00 13.95 40.21                                                             
C  0.00 13.95 52.58                                                             
C  4.03 11.62  3.09                                                             
C  4.03 11.62 15.47                                                             
C  4.03 11.62 27.84                                                             
C  4.03 11.62 40.21                                                             
C  4.03 11.62 52.58                                                             
C  8.05  9.30  3.09                                                             
C  8.05  9.30 15.47                                                             
C  8.05  9.30 27.84                                                             
C  8.05  9.30 40.21                                                             
C  8.05  9.30 52.58                                                             
C 12.08  6.97  3.09                                                             
C 12.08  6.97 15.47                                                             
C 12.08  6.97 27.84                                                             
C 12.08  6.97 40.21                                                             
C 12.08  6.97 52.58                                                             
C 16.10  4.65  3.09                                                             
C 16.10  4.65 15.47                                                             
C 16.10  4.65 27.84                                                             
C 16.10  4.65 40.21                                                             
C 16.10  4.65 52.58                                                             
C 20.13  2.32  3.09                                                             
C 20.13  2.32 15.47                                                             
C 20.13  2.32 27.84                                                             
C 20.13  2.32 40.21                                                             
C 20.13  2.32 52.58                                                             
C 24.16  0.00  3.09                                                             
C 24.16  0.00 15.47                                                             
C 24.16  0.00 27.84                                                             
C 24.16  0.00 40.21                                                             
C 24.16  0.00 52.58                                                             
C  4.03 16.27  3.09                                                             
C  4.03 16.27 15.47                                                             
C  4.03 16.27 27.84                                                             
C  4.03 16.27 40.21                                                             
C  4.03 16.27 52.58                                                             
C  8.05 13.95  3.09                                                             
C  8.05 13.95 15.47                                                             
C  8.05 13.95 27.84                                                             
C  8.05 13.95 40.21                                                             
C  8.05 13.95 52.58                                                             
C 12.08 11.62  3.09                                                             
C 12.08 11.62 15.47                                                             
C 12.08 11.62 27.84                                                             
C 12.08 11.62 40.21                                                             
C 12.08 11.62 52.58                                                             
C 16.10  9.30  3.09                                                             
C 16.10  9.30 15.47                                                             
C 16.10  9.30 27.84                                                             
C 16.10  9.30 40.21                                                             
C 16.10  9.30 52.58                                                             
C 20.13  6.97  3.09                                                             
C 20.13  6.97 15.47                                                             
C 20.13  6.97 27.84                                                             
C 20.13  6.97 40.21                                                             
C 20.13  6.97 52.58                                                             
C 24.16  4.65  3.09                                                             
C 24.16  4.65 15.47                                                             
C 24.16  4.65 27.84                                                             
C 24.16  4.65 40.21                                                             
C 24.16  4.65 52.58                                                             
C 28.18  2.32  3.09                                                             
C 28.18  2.32 15.47                                                             
C 28.18  2.32 27.84                                                             
C 28.18  2.32 40.21                                                             
C 28.18  2.32 52.58                                                             
C 12.08 16.27  3.09                                                             
C 12.08 16.27 15.47                                                             
C 12.08 16.27 27.84                                                             
C 12.08 16.27 40.21                                                             
C 12.08 16.27 52.58                                                             
C 16.10 13.95  3.09                                                             
C 16.10 13.95 15.47                                                             
C 16.10 13.95 27.84                                                             
C 16.10 13.95 40.21                                                             
C 16.10 13.95 52.58                                                             
C 20.13 11.62  3.09                                                             
C 20.13 11.62 15.47                                                             
C 20.13 11.62 27.84                                                             
C 20.13 11.62 40.21                                                             
C 20.13 11.62 52.58                                                             
C 24.16  9.30  3.09                                                             
C 24.16  9.30 15.47                                                             
C 24.16  9.30 27.84                                                             
C 24.16  9.30 40.21                                                             
C 24.16  9.30 52.58                                                             
C 28.18  6.97  3.09                                                             
C 28.18  6.97 15.47                                                             
C 28.18  6.97 27.84                                                             
C 28.18  6.97 40.21                                                             
C 28.18  6.97 52.58                                                             
C 20.13 16.27  3.09                                                             
C 20.13 16.27 15.47                                                             
C 20.13 16.27 27.84                                                             
C 20.13 16.27 40.21                                                             
C 20.13 16.27 52.58                                                             
C 24.16 13.95  3.09                                                             
C 24.16 13.95 15.47                                                             
C 24.16 13.95 27.84                                                             
C 24.16 13.95 40.21                                                             
C 24.16 13.95 52.58                                                             
C 28.18 11.62  3.09                                                             
C 28.18 11.62 15.47                                                             
C 28.18 11.62 27.84                                                             
C 28.18 11.62 40.21                                                             
C 28.18 11.62 52.58                                                             
C 28.18 16.27  3.09                                                             
C 28.18 16.27 15.47                                                             
C 28.18 16.27 27.84                                                             
C 28.18 16.27 40.21                                                             
C 28.18 16.27 52.58                                                             
C  0.00  0.00  9.28                                                             
C  0.00  0.00 21.65                                                             
C  0.00  0.00 34.02                                                             
C  0.00  0.00 46.40                                                             
C  0.00  0.00 58.77                                                             
C  0.00  4.65  9.28                                                             
C  0.00  4.65 21.65                                                             
C  0.00  4.65 34.02                                                             
C  0.00  4.65 46.40                                                             
C  0.00  4.65 58.77                                                             
C  4.03  2.32  9.28                                                             
C  4.03  2.32 21.65                                                             
C  4.03  2.32 34.02                                                             
C  4.03  2.32 46.40                                                             
C  4.03  2.32 58.77                                                             
C  8.05  0.00  9.28                                                             
C  8.05  0.00 21.65                                                             
C  8.05  0.00 34.02                                                             
C  8.05  0.00 46.40                                                             
C  8.05  0.00 58.77                                                             
C  0.00  9.30  9.28                                                             
C  0.00  9.30 21.65                                                             
C  0.00  9.30 34.02                                                             
C  0.00  9.30 46.40                                                             
C  0.00  9.30 58.77                                                             
C  4.03  6.97  9.28                                                             
C  4.03  6.97 21.65                                                             
C  4.03  6.97 34.02                                                             
C  4.03  6.97 46.40                                                             
C  4.03  6.97 58.77                                                             
C  8.05  4.65  9.28                                                             
C  8.05  4.65 21.65                                                             
C  8.05  4.65 34.02                                                             
C  8.05  4.65 46.40                                                             
C  8.05  4.65 58.77                                                             
C 12.08  2.32  9.28                                                             
C 12.08  2.32 21.65                                                             
C 12.08  2.32 34.02                                                             
C 12.08  2.32 46.40                                                             
C 12.08  2.32 58.77                                                             
C 16.10  0.00  9.28                                                             
C 16.10  0.00 21.65                                                             
C 16.10  0.00 34.02                                                             
C 16.10  0.00 46.40                                                             
C 16.10  0.00 58.77                                                             
C  0.00 13.95  9.28                                                             
C  0.00 13.95 21.65                                                             
C  0.00 13.95 34.02                                                             
C  0.00 13.95 46.40                                                             
C  0.00 13.95 58.77                                                             
C  4.03 11.62  9.28                                                             
C  4.03 11.62 21.65                                                             
C  4.03 11.62 34.02                                                             
C  4.03 11.62 46.40                                                             
C  4.03 11.62 58.77                                                             
C  8.05  9.30  9.28                                                             
C  8.05  9.30 21.65                                                             
C  8.05  9.30 34.02                                                             
C  8.05  9.30 46.40                                                             
C  8.05  9.30 58.77                                                             
C 12.08  6.97  9.28                                                             
C 12.08  6.97 21.65                                                             
C 12.08  6.97 34.02                                                             
C 12.08  6.97 46.40                                                             
C 12.08  6.97 58.77                                                             
C 16.10  4.65  9.28                                                             
C 16.10  4.65 21.65                                                             
C 16.10  4.65 34.02                                                             
C 16.10  4.65 46.40                                                             
C 16.10  4.65 58.77                                                             
C 20.13  2.32  9.28                                                             
C 20.13  2.32 21.65                                                             
C 20.13  2.32 34.02                                                             
C 20.13  2.32 46.40                                                             
C 20.13  2.32 58.77                                                             
C 24.16  0.00  9.28                                                             
C 24.16  0.00 21.65                                                             
C 24.16  0.00 34.02                                                             
C 24.16  0.00 46.40                                                             
C 24.16  0.00 58.77                                                             
C  4.03 16.27  9.28                                                             
C  4.03 16.27 21.65                                                             
C  4.03 16.27 34.02                                                             
C  4.03 16.27 46.40                                                             
C  4.03 16.27 58.77                                                             
C  8.05 13.95  9.28                                                             
C  8.05 13.95 21.65                                                             
C  8.05 13.95 34.02                                                             
C  8.05 13.95 46.40                                                             
C  8.05 13.95 58.77                                                             
C 12.08 11.62  9.28                                                             
C 12.08 11.62 21.65                                                             
C 12.08 11.62 34.02                                                             
C 12.08 11.62 46.40                                                             
C 12.08 11.62 58.77                                                             
C 16.10  9.30  9.28                                                             
C 16.10  9.30 21.65                                                             
C 16.10  9.30 34.02                                                             
C 16.10  9.30 46.40                                                             
C 16.10  9.30 58.77                                                             
C 20.13  6.97  9.28                                                             
C 20.13  6.97 21.65                                                             
C 20.13  6.97 34.02                                                             
C 20.13  6.97 46.40                                                             
C 20.13  6.97 58.77                                                             
C 24.16  4.65  9.28                                                             
C 24.16  4.65 21.65                                                             
C 24.16  4.65 34.02                                                             
C 24.16  4.65 46.40                                                             
C 24.16  4.65 58.77                                                             
C 28.18  2.32  9.28                                                             
C 28.18  2.32 21.65                                                             
C 28.18  2.32 34.02                                                             
C 28.18  2.32 46.40                                                             
C 28.18  2.32 58.77                                                             
C 12.08 16.27  9.28                                                             
C 12.08 16.27 21.65                                                             
C 12.08 16.27 34.02                                                             
C 12.08 16.27 46.40                                                             
C 12.08 16.27 58.77                                                             
C 16.10 13.95  9.28                                                             
C 16.10 13.95 21.65                                                             
C 16.10 13.95 34.02                                                             
C 16.10 13.95 46.40                                                             
C 16.10 13.95 58.77                                                             
C 20.13 11.62  9.28                                                             
C 20.13 11.62 21.65                                                             
C 20.13 11.62 34.02                                                             
C 20.13 11.62 46.40                                                             
C 20.13 11.62 58.77                                                             
C 24.16  9.30  9.28                                                             
C 24.16  9.30 21.65                                                             
C 24.16  9.30 34.02                                                             
C 24.16  9.30 46.40                                                             
C 24.16  9.30 58.77                                                             
C 28.18  6.97  9.28                                                             
C 28.18  6.97 21.65                                                             
C 28.18  6.97 34.02                                                             
C 28.18  6.97 46.40                                                             
C 28.18  6.97 58.77                                                             
C 20.13 16.27  9.28                                                             
C 20.13 16.27 21.65                                                             
C 20.13 16.27 34.02                                                             
C 20.13 16.27 46.40                                                             
C 20.13 16.27 58.77                                                             
C 24.16 13.95  9.28                                                             
C 24.16 13.95 21.65                                                             
C 24.16 13.95 34.02                                                             
C 24.16 13.95 46.40                                                             
C 24.16 13.95 58.77                                                             
C 28.18 11.62  9.28                                                             
C 28.18 11.62 21.65                                                             
C 28.18 11.62 34.02                                                             
C 28.18 11.62 46.40                                                             
C 28.18 11.62 58.77                                                             
C 28.18 16.27  9.28                                                             
C 28.18 16.27 21.65                                                             
C 28.18 16.27 34.02                                                             
C 28.18 16.27 46.40                                                             
C 28.18 16.27 58.77                                                             
C  1.34  2.32  3.09                                                             
C  1.34  2.32 15.47                                                             
C  1.34  2.32 27.84                                                             
C  1.34  2.32 40.21                                                             
C  1.34  2.32 52.58                                                             
C  5.37  0.00  3.09                                                             
C  5.37  0.00 15.47                                                             
C  5.37  0.00 27.84                                                             
C  5.37  0.00 40.21                                                             
C  5.37  0.00 52.58                                                             
C  1.34  6.97  3.09                                                             
C  1.34  6.97 15.47                                                             
C  1.34  6.97 27.84                                                             
C  1.34  6.97 40.21                                                             
C  1.34  6.97 52.58                                                             
C  5.37  4.65  3.09                                                             
C  5.37  4.65 15.47                                                             
C  5.37  4.65 27.84                                                             
C  5.37  4.65 40.21                                                             
C  5.37  4.65 52.58                                                             
C  9.39  2.32  3.09                                                             
C  9.39  2.32 15.47                                                             
C  9.39  2.32 27.84                                                             
C  9.39  2.32 40.21                                                             
C  9.39  2.32 52.58                                                             
C 13.42  0.00  3.09                                                             
C 13.42  0.00 15.47                                                             
C 13.42  0.00 27.84                                                             
C 13.42  0.00 40.21                                                             
C 13.42  0.00 52.58                                                             
C  1.34 11.62  3.09                                                             
C  1.34 11.62 15.47                                                             
C  1.34 11.62 27.84                                                             
C  1.34 11.62 40.21                                                             
C  1.34 11.62 52.58                                                             
C  5.37  9.30  3.09                                                             
C  5.37  9.30 15.47                                                             
C  5.37  9.30 27.84                                                             
C  5.37  9.30 40.21                                                             
C  5.37  9.30 52.58                                                             
C  9.39  6.97  3.09                                                             
C  9.39  6.97 15.47                                                             
C  9.39  6.97 27.84                                                             
C  9.39  6.97 40.21                                                             
C  9.39  6.97 52.58                                                             
C 13.42  4.65  3.09                                                             
C 13.42  4.65 15.47                                                             
C 13.42  4.65 27.84                                                             
C 13.42  4.65 40.21                                                             
C 13.42  4.65 52.58                                                             
C 17.45  2.32  3.09                                                             
C 17.45  2.32 15.47                                                             
C 17.45  2.32 27.84                                                             
C 17.45  2.32 40.21                                                             
C 17.45  2.32 52.58                                                             
C 21.47  0.00  3.09                                                             
C 21.47  0.00 15.47                                                             
C 21.47  0.00 27.84                                                             
C 21.47  0.00 40.21                                                             
C 21.47  0.00 52.58                                                             
C  1.34 16.27  3.09                                                             
C  1.34 16.27 15.47                                                             
C  1.34 16.27 27.84                                                             
C  1.34 16.27 40.21                                                             
C  1.34 16.27 52.58                                                             
C  5.37 13.95  3.09                                                             
C  5.37 13.95 15.47                                                             
C  5.37 13.95 27.84                                                             
C  5.37 13.95 40.21                                                             
C  5.37 13.95 52.58                                                             
C  9.39 11.62  3.09                                                             
C  9.39 11.62 15.47                                                             
C  9.39 11.62 27.84                                                             
C  9.39 11.62 40.21                                                             
C  9.39 11.62 52.58                                                             
C 13.42  9.30  3.09                                                             
C 13.42  9.30 15.47                                                             
C 13.42  9.30 27.84                                                             
C 13.42  9.30 40.21                                                             
C 13.42  9.30 52.58                                                             
C 17.45  6.97  3.09                                                             
C 17.45  6.97 15.47                                                             
C 17.45  6.97 27.84                                                             
C 17.45  6.97 40.21                                                             
C 17.45  6.97 52.58                                                             
C 21.47  4.65  3.09                                                             
C 21.47  4.65 15.47                                                             
C 21.47  4.65 27.84                                                             
C 21.47  4.65 40.21                                                             
C 21.47  4.65 52.58                                                             
C 25.50  2.32  3.09                                                             
C 25.50  2.32 15.47                                                             
C 25.50  2.32 27.84                                                             
C 25.50  2.32 40.21                                                             
C 25.50  2.32 52.58                                                             
C 29.52  0.00  3.09                                                             
C 29.52  0.00 15.47                                                             
C 29.52  0.00 27.84                                                             
C 29.52  0.00 40.21                                                             
C 29.52  0.00 52.58                                                             
C  9.39 16.27  3.09                                                             
C  9.39 16.27 15.47                                                             
C  9.39 16.27 27.84                                                             
C  9.39 16.27 40.21                                                             
C  9.39 16.27 52.58                                                             
C 13.42 13.95  3.09                                                             
C 13.42 13.95 15.47                                                             
C 13.42 13.95 27.84                                                             
C 13.42 13.95 40.21                                                             
C 13.42 13.95 52.58                                                             
C 17.45 11.62  3.09                                                             
C 17.45 11.62 15.47                                                             
C 17.45 11.62 27.84                                                             
C 17.45 11.62 40.21                                                             
C 17.45 11.62 52.58                                                             
C 21.47  9.30  3.09                                                             
C 21.47  9.30 15.47                                                             
C 21.47  9.30 27.84                                                             
C 21.47  9.30 40.21                                                             
C 21.47  9.30 52.58                                                             
C 25.50  6.97  3.09                                                             
C 25.50  6.97 15.47                                                             
C 25.50  6.97 27.84                                                             
C 25.50  6.97 40.21                                                             
C 25.50  6.97 52.58                                                             
C 29.52  4.65  3.09                                                             
C 29.52  4.65 15.47                                                             
C 29.52  4.65 27.84                                                             
C 29.52  4.65 40.21                                                             
C 29.52  4.65 52.58                                                             
C 17.45 16.27  3.09                                                             
C 17.45 16.27 15.47                                                             
C 17.45 16.27 27.84                                                             
C 17.45 16.27 40.21                                                             
C 17.45 16.27 52.58                                                             
C 21.47 13.95  3.09                                                             
C 21.47 13.95 15.47                                                             
C 21.47 13.95 27.84                                                             
C 21.47 13.95 40.21                                                             
C 21.47 13.95 52.58                                                             
C 25.50 11.62  3.09                                                             
C 25.50 11.62 15.47                                                             
C 25.50 11.62 27.84                                                             
C 25.50 11.62 40.21                                                             
C 25.50 11.62 52.58                                                             
C 29.52  9.30  3.09                                                             
C 29.52  9.30 15.47                                                             
C 29.52  9.30 27.84                                                             
C 29.52  9.30 40.21                                                             
C 29.52  9.30 52.58                                                             
C 25.50 16.27  3.09                                                             
C 25.50 16.27 15.47                                                             
C 25.50 16.27 27.84                                                             
C 25.50 16.27 40.21                                                             
C 25.50 16.27 52.58                                                             
C 29.52 13.95  3.09                                                             
C 29.52 13.95 15.47                                                             
C 29.52 13.95 27.84                                                             
C 29.52 13.95 40.21                                                             
C 29.52 13.95 52.58                                                             
C  2.68  0.00  9.28                                                             
C  2.68  0.00 21.65                                                             
C  2.68  0.00 34.02                                                             
C  2.68  0.00 46.40                                                             
C  2.68  0.00 58.77                                                             
C  2.68  4.65  9.28                                                             
C  2.68  4.65 21.65                                                             
C  2.68  4.65 34.02                                                             
C  2.68  4.65 46.40                                                             
C  2.68  4.65 58.77                                                             
C  6.71  2.32  9.28                                                             
C  6.71  2.32 21.65                                                             
C  6.71  2.32 34.02                                                             
C  6.71  2.32 46.40                                                             
C  6.71  2.32 58.77                                                             
C 10.74  0.00  9.28                                                             
C 10.74  0.00 21.65                                                             
C 10.74  0.00 34.02                                                             
C 10.74  0.00 46.40                                                             
C 10.74  0.00 58.77                                                             
C  2.68  9.30  9.28                                                             
C  2.68  9.30 21.65                                                             
C  2.68  9.30 34.02                                                             
C  2.68  9.30 46.40                                                             
C  2.68  9.30 58.77                                                             
C  6.71  6.97  9.28                                                             
C  6.71  6.97 21.65                                                             
C  6.71  6.97 34.02                                                             
C  6.71  6.97 46.40                                                             
C  6.71  6.97 58.77                                                             
C 10.74  4.65  9.28                                                             
C 10.74  4.65 21.65                                                             
C 10.74  4.65 34.02                                                             
C 10.74  4.65 46.40                                                             
C 10.74  4.65 58.77                                                             
C 14.76  2.32  9.28                                                             
C 14.76  2.32 21.65                                                             
C 14.76  2.32 34.02                                                             
C 14.76  2.32 46.40                                                             
C 14.76  2.32 58.77                                                             
C 18.79  0.00  9.28                                                             
C 18.79  0.00 21.65                                                             
C 18.79  0.00 34.02                                                             
C 18.79  0.00 46.40                                                             
C 18.79  0.00 58.77                                                             
C  2.68 13.95  9.28                                                             
C  2.68 13.95 21.65                                                             
C  2.68 13.95 34.02                                                             
C  2.68 13.95 46.40                                                             
C  2.68 13.95 58.77                                                             
C  6.71 11.62  9.28                                                             
C  6.71 11.62 21.65                                                             
C  6.71 11.62 34.02                                                             
C  6.71 11.62 46.40                                                             
C  6.71 11.62 58.77                                                             
C 10.74  9.30  9.28                                                             
C 10.74  9.30 21.65                                                             
C 10.74  9.30 34.02                                                             
C 10.74  9.30 46.40                                                             
C 10.74  9.30 58.77                                                             
C 14.76  6.97  9.28                                                             
C 14.76  6.97 21.65                                                             
C 14.76  6.97 34.02                                                             
C 14.76  6.97 46.40                                                             
C 14.76  6.97 58.77                                                             
C 18.79  4.65  9.28                                                             
C 18.79  4.65 21.65                                                             
C 18.79  4.65 34.02                                                             
C 18.79  4.65 46.40                                                             
C 18.79  4.65 58.77                                                             
C 22.81  2.32  9.28                                                             
C 22.81  2.32 21.65                                                             
C 22.81  2.32 34.02                                                             
C 22.81  2.32 46.40                                                             
C 22.81  2.32 58.77                                                             
C 26.84  0.00  9.28                                                             
C 26.84  0.00 21.65                                                             
C 26.84  0.00 34.02                                                             
C 26.84  0.00 46.40                                                             
C 26.84  0.00 58.77                                                             
C  6.71 16.27  9.28                                                             
C  6.71 16.27 21.65                                                             
C  6.71 16.27 34.02                                                             
C  6.71 16.27 46.40                                                             
C  6.71 16.27 58.77                                                             
C 10.74 13.95  9.28                                                             
C 10.74 13.95 21.65                                                             
C 10.74 13.95 34.02                                                             
C 10.74 13.95 46.40                                                             
C 10.74 13.95 58.77                                                             
C 14.76 11.62  9.28                                                             
C 14.76 11.62 21.65                                                             
C 14.76 11.62 34.02                                                             
C 14.76 11.62 46.40                                                             
C 14.76 11.62 58.77                                                             
C 18.79  9.30  9.28                                                             
C 18.79  9.30 21.65                                                             
C 18.79  9.30 34.02                                                             
C 18.79  9.30 46.40                                                             
C 18.79  9.30 58.77                                                             
C 22.81  6.97  9.28                                                             
C 22.81  6.97 21.65                                                             
C 22.81  6.97 34.02                                                             
C 22.81  6.97 46.40                                                             
C 22.81  6.97 58.77                                                             
C 26.84  4.65  9.28                                                             
C 26.84  4.65 21.65                                                             
C 26.84  4.65 34.02                                                             
C 26.84  4.65 46.40                                                             
C 26.84  4.65 58.77                                                             
C 30.86  2.32  9.28                                                             
C 30.86  2.32 21.65                                                             
C 30.86  2.32 34.02                                                             
C 30.86  2.32 46.40                                                             
C 30.86  2.32 58.77                                                             
C 14.76 16.27  9.28                                                             
C 14.76 16.27 21.65                                                             
C 14.76 16.27 34.02                                                             
C 14.76 16.27 46.40                                                             
C 14.76 16.27 58.77                                                             
C 18.79 13.95  9.28                                                             
C 18.79 13.95 21.65                                                             
C 18.79 13.95 34.02                                                             
C 18.79 13.95 46.40                                                             
C 18.79 13.95 58.77                                                             
C 22.81 11.62  9.28                                                             
C 22.81 11.62 21.65                                                             
C 22.81 11.62 34.02                                                             
C 22.81 11.62 46.40                                                             
C 22.81 11.62 58.77                                                             
C 26.84  9.30  9.28                                                             
C 26.84  9.30 21.65                                                             
C 26.84  9.30 34.02                                                             
C 26.84  9.30 46.40                                                             
C 26.84  9.30 58.77                                                             
C 30.86  6.97  9.28                                                             
C 30.86  6.97 21.65                                                             
C 30.86  6.97 34.02                                                             
C 30.86  6.97 46.40                                                             
C 30.86  6.97 58.77                                                             
C 22.81 16.27  9.28                                                             
C 22.81 16.27 21.65                                                             
C 22.81 16.27 34.02                                                             
C 22.81 16.27 46.40                                                             
C 22.81 16.27 58.77                                                             
C 26.84 13.95  9.28                                                             
C 26.84 13.95 21.65                                                             
C 26.84 13.95 34.02                                                             
C 26.84 13.95 46.40                                                             
C 26.84 13.95 58.77                                                             
C 30.86 11.62  9.28                                                             
C 30.86 11.62 21.65                                                             
C 30.86 11.62 34.02                                                             
C 30.86 11.62 46.40                                                             
C 30.86 11.62 58.77                                                             
C 30.86 16.27  9.28                                                             
C 30.86 16.27 21.65                                                             
C 30.86 16.27 34.02                                                             
C 30.86 16.27 46.40                                                             
C 30.86 16.27 58.77                                                             
%ENDBLOCK POSITIONS_ABS                                                         

--------------------------------------------------------------------------------
-------------------------------- END INPUT FILE --------------------------------
--------------------------------------------------------------------------------


 
<<<<<<<<<<<<<<<<<<<<<<<<<<<<<<<<< Full system >>>>>>>>>>>>>>>>>>>>>>>>>>>>>>>>>>
<<<<<<<<<<<<<<<<<<<<<<<<<<< PAW Dataset information >>>>>>>>>>>>>>>>>>>>>>>>>>>
File: ~/pp/paw/c_pbe_abinit.paw; rc = 1.25 bohr; shape type =  3; rshape = 1.25 bohr;
  Atomic number:  6;  ionic charge:  4.000000
    Partial Wave 1: l = 0
    Partial Wave 2: l = 0
    Partial Wave 3: l = 1
    Partial Wave 4: l = 1
  Core charge supplied for Nonlinear Core Corrections
<<<<<<<<<<<<<<<<<<<<<<<<<<<<<<<<<<<<<<< >>>>>>>>>>>>>>>>>>>>>>>>>>>>>>>>>>>>>>>

-------------------------- Atom counting information ---------------------------
Symbol    Natoms    Nngwfs    Nprojs
  C        640      2560      5120
.......   ......    ......    ......
Totals:    640      2560      5120
--------------------------------------------------------------------------------

=============================== PSINC grid sizes ===============================
                      Simulation cell:   63 x  35 x 122
                              FFT-box:   63 x  35 x 117
                                  PPD:    7 x   5 x   1
Grid space d1=  0.511269841270a0 (KE cutoff=  29.06054Eh = 790.77748eV)
Grid space d2=  0.531142857143a0 (KE cutoff=  26.92659Eh = 732.70972eV)
Grid space d3=  0.507049180328a0 (KE cutoff=  29.54635Eh = 803.99708eV)
================================================================================
  
WARNING in cell_grid_distribute:
Average of less than one 23-slab per node, so workload cannot be
equally balanced between nodes.

********************* Fourier parallelisation information **********************
       Coarse grid (whole simulation cell) dimensions:     63    35   122
          Real-space ('12') slabs/node (min max mean):      3     4     3
         Recip-space ('23') slabs/node (min max mean):      0     1     0
********************************************************************************

********************* Fourier parallelisation information **********************
       Double grid (whole simulation cell) dimensions:    126    70   244
          Real-space ('12') slabs/node (min max mean):      6     7     6
         Recip-space ('23') slabs/node (min max mean):      1     2     1
********************************************************************************

Atom SCF Calculation for C  : Z (AE atom) =   6 : Z (PS atom) =   4
Config String: 2s2 2p2
Orbitals (num,occ):  2     2.00 2.00
Orbitals   (num,l):  2        0    1
Real-space Grid (nr,dr,rmax): 1293    0.0069659443    9.0000000000
Spherical Bessel Basis (nsws,lmax,cutoff):   37    2  161.4736382572
Confining potential (l,width,scale):  0    3.0000000000  100.0000000000
Confining potential (l,width,scale):  1    3.0000000000  100.0000000000
  1         -5.4795203654   -1.3252209296    4.5135257941   -1.6370402169
  2         -5.4480859746   -1.4027979239    4.4305951748   -1.6109819005
  3         -5.4553164790   -1.4212834043    4.4102618304   -1.6059039466
  4         -5.4627841133   -1.4247091338    4.4065122085   -1.6052907585
  5         -5.4662306655   -1.4266814823    4.4043715292   -1.6049352647
  6         -5.4679520247   -1.4277352742    4.4032348712   -1.6047493439
  7         -5.4688359568   -1.4282868030    4.4026432892   -1.6046541449
  8         -5.4692951245   -1.4285734530    4.4023374832   -1.6046056242
  9         -5.4695349887   -1.4287220785    4.4021797781   -1.6045809101
 10         -5.4696606791   -1.4287991022    4.4020984905   -1.6045683155
 11         -5.4697266650   -1.4288390363    4.4020565747   -1.6045618912
 12         -5.4697613504   -1.4288597596    4.4020349416   -1.6045586107
 13         -5.4697795998   -1.4288705262    4.4020237638   -1.6045569335
 14         -5.4697892089   -1.4288761271    4.4020179806   -1.6045560749
 15         -5.4697942720   -1.4288790448    4.4020149844   -1.6045556348
 16         -5.4697969415   -1.4288805668    4.4020134298   -1.6045554088
 17         -5.4697983498   -1.4288813619    4.4020126220   -1.6045552927
 18         -5.4697990933   -1.4288817779    4.4020122017   -1.6045552329
 19         -5.4697994860   -1.4288819957    4.4020119826   -1.6045552021
 20         -5.4697996936   -1.4288821100    4.4020118683   -1.6045551862
 21         -5.4697998034   -1.4288821701    4.4020118085   -1.6045551780
 22         -5.4697998614   -1.4288822017    4.4020117772   -1.6045551737
Atom SCF converged after  22 iterations to a total energy of     -5.46979986

Determining parallel strategy ...
... using space-filling curve
... NGWF load balancing: max     64;  min     64;  average     64
... Projector load balancing: max    128;  min    128;  average    128
... done
Calculating Ewald energy ...
              Ewald: real-space energy =    9513.649447
        Ewald: reciprocal-space energy =       0.059796
         Ewald: (sum_charge)**2 Energy =   11406.785290
         Ewald: (sum_charge**2) Energy =     901.785557
                          Ewald Energy =   -2794.861604
Basis initialisation ...... NGWF spheres initialised
... Projector spheres initialised
... NGWF tight boxes initialised
... Projector tight boxes initialised
... Tight-boxes gathered
... NGWF basis size (local,global):     694868  27907776
... PAW projector initialisation
... done

============================= Charge Augmentation ==============================
                           Aug box size:   11 x  11 x  11
================================================================================

========================== Sparse matrix information ===========================
                        Overlap matrix filling:  44.38%
                        Density kernel filling: 100.00%
              NGWF-Proj overlap matrix filling:  13.12%
                    Aug Overlap matrix filling:  47.81%
                    Hamiltonian matrix filling:  47.81%
                  NGWF diagonal matrix filling:   0.16%
                             KS matrix filling: 100.00% 
                           KSKS matrix filling: 100.00% 
================================================================================

Sparse matrix initialisation ... done
NGWF initialisation ...... done
============ Calculation of NGWF S^-1 using Hotelling algorithm ================ 
         Iteration  |  Frobenius norm and Maximum abs value    (of I-S*S_n^-1)   
               1       0.49196702E+02     0.97772332E+00
               2       0.48062917E+02     0.95725795E+00
               3       0.46335231E+02     0.92077253E+00
               4       0.44055211E+02     0.86077712E+00
               5       0.41294113E+02     0.77139351E+00
               6       0.38026104E+02     0.68885370E+00
               7       0.34518068E+02     0.63892230E+00
               8       0.31153007E+02     0.59730947E+00
               9       0.27676885E+02     0.55512519E+00
              10       0.23376380E+02     0.49168734E+00
              11       0.17744966E+02     0.38935748E+00
              12       0.11035848E+02     0.24882524E+00
              13       0.48318503E+01     0.10740325E+00
              14       0.11060327E+01     0.22689304E-01
              15       0.69739068E-01     0.12395048E-02
              16       0.35525136E-03     0.47898314E-05
              17       0.13895009E-07     0.11455226E-09
              18       0.81648357E-13     0.37747583E-14
================================================================================
Calculating core density ...
================================= Core Density =================================
               Core den box size:   21 x  21 x  21
================================================================================
 ... done
Up spin density kernel initialisation ...... done

Writing density kernel to file "3.2735064_GO_manual_4x64graphite.dkn" ... done

>>> Optimising kernel for current NGWFs:

--------------------------- Ensemble-DFT optimisation --------------------------
Running ScaLAPACK on   40 processor(s).

--------------------------------------------------------------------------------
  Iter                              Commutator    Free_energy(A=E-TS)     DeltaA
#    0                          0.000042199118   -3651.56772081904955  -3.65E+03

Step                       =       0.381966011250
Energy                     =   -3651.567685334425
Entropy (-TS)              =      -0.000035485019
Free energy (A=E-TS)       =   -3651.567720819050
Est. 0K Energy 0.5*(E+A)   =   -3651.567703076737
Residual Non-orthogonality =       0.000000000000
Residual N_electrons       =       0.000000000395

Spin          Integrated_Ne            Fermi_level     Delta_Fermi_level
   1      2559.999999998246         0.224994137087              2.25E-01

                           Spin 1          
     Orb      H-eigenvalues     Occupancies
       1 |    -0.4998334830    1.0000000000 | 
                          ------
    1276 |     0.1916351493    0.9999733830 | 
    1277 |     0.1922385108    0.9999677967 | 
    1278 |     0.1922548476    0.9999676301 | 
    1279 |     0.1927236576    0.9999624655 | 
    1280 |     0.1933339719    0.9999544880 | 
                 - Gap at zero temperature -
    1281 |     0.2591782311    0.0000205119 | 
    1282 |     0.2591923809    0.0000204205 | 
    1283 |     0.2592928385    0.0000197829 | 
    1284 |     0.2594068033    0.0000190836 | 
    1285 |     0.2594208652    0.0000189991 | 
                          ------
    2560 |     1.0593149994    0.0000000000 | 

                       |  Abs_value |  Threshold | Converged
     Delta_Free_energy |   3.65E+03 |   1.00E-06 |        No
     Delta_Energy      |   3.65E+03 |   1.00E-04 |        No
     Delta_Entropy     |   3.55E-05 |   1.00E-04 |       Yes
     Commutator        |   4.22E-05 |   1.00E-05 |        No
     Delta_Fermi_level |   2.25E-01 |   1.00E-03 |        No

  Line search of the free energy minimum:
  Step_type        Step             Free_energy   Predicted_free_energy
.   Initial    0.000000    -3651.56772081904955
.    Trial1    0.381966    -3651.56952529163073
.    Trial2    0.618034    -3651.56938485162755
. Quadratic    0.465438    -3651.56958467816412    -3651.56958525771233

--------------------------------------------------------------------------------
  Iter                              Commutator    Free_energy(A=E-TS)     DeltaA
#    1                          0.000021236351   -3651.56958467816412  -1.86E-03

Step                       =       0.465437967779
Energy                     =   -3651.569550060361
Entropy (-TS)              =      -0.000034618280
Free energy (A=E-TS)       =   -3651.569584678164
Est. 0K Energy 0.5*(E+A)   =   -3651.569567369263
Residual Non-orthogonality =       0.000000000000
Residual N_electrons       =       0.000000000477

Spin          Integrated_Ne            Fermi_level     Delta_Fermi_level
   1      2559.999999997900         0.226929078518              1.93E-03

                           Spin 1          
     Orb      H-eigenvalues     Occupancies
       1 |    -0.4987702205    1.0000000000 | 
                          ------
    1276 |     0.1935607365    0.9999734616 | 
    1277 |     0.1940347455    0.9999691767 | 
    1278 |     0.1940531248    0.9999689973 | 
    1279 |     0.1946687695    0.9999623447 | 
    1280 |     0.1951520372    0.9999561370 | 
                 - Gap at zero temperature -
    1281 |     0.2611693414    0.0000201513 | 
    1282 |     0.2612011073    0.0000199502 | 
    1283 |     0.2613084874    0.0000192851 | 
    1284 |     0.2614040853    0.0000187116 | 
    1285 |     0.2614636101    0.0000183632 | 
                          ------
    2560 |     1.0626157290    0.0000000000 | 

                       |  Abs_value |  Threshold | Converged
     Delta_Free_energy |   1.86E-03 |   1.00E-06 |        No
     Delta_Energy      |   1.86E-03 |   1.00E-04 |        No
     Delta_Entropy     |   8.67E-07 |   1.00E-04 |       Yes
     Commutator        |   2.12E-05 |   1.00E-05 |        No
     Delta_Fermi_level |   1.93E-03 |   1.00E-03 |        No

  Line search of the free energy minimum:
  Step_type        Step             Free_energy   Predicted_free_energy
.   Initial    0.000000    -3651.56958467816412
.    Trial1    0.465438    -3651.56983931391915
.    Trial2    0.669622    -3651.56933402004779
. Quadratic    0.293336    -3651.56997365920461    -3651.56997297485896

--------------------------------------------------------------------------------
  Iter                              Commutator    Free_energy(A=E-TS)     DeltaA
#    2                          0.000013818321   -3651.56997365920461  -3.89E-04

Step                       =       0.293336015481
Energy                     =   -3651.569939423404
Entropy (-TS)              =      -0.000034235759
Free energy (A=E-TS)       =   -3651.569973659205
Est. 0K Energy 0.5*(E+A)   =   -3651.569956541304
Residual Non-orthogonality =       0.000000000000
Residual N_electrons       =      -0.000000000041

Spin          Integrated_Ne            Fermi_level     Delta_Fermi_level
   1      2560.000000000182         0.227544276450              6.15E-04

                           Spin 1          
     Orb      H-eigenvalues     Occupancies
       1 |    -0.4984252223    1.0000000000 | 
                          ------
    1276 |     0.1941214165    0.9999739145 | 
    1277 |     0.1946273594    0.9999693957 | 
    1278 |     0.1946477894    0.9999691977 | 
    1279 |     0.1952246939    0.9999630430 | 
    1280 |     0.1957417774    0.9999564882 | 
                 - Gap at zero temperature -
    1281 |     0.2618275208    0.0000198797 | 
    1282 |     0.2618607598    0.0000196721 | 
    1283 |     0.2619654866    0.0000190322 | 
    1284 |     0.2620706418    0.0000184106 | 
    1285 |     0.2621320481    0.0000180571 | 
                          ------
    2560 |     1.0637068107    0.0000000000 | 

                       |  Abs_value |  Threshold | Converged
     Delta_Free_energy |   3.89E-04 |   1.00E-06 |        No
     Delta_Energy      |   3.89E-04 |   1.00E-04 |        No
     Delta_Entropy     |   3.83E-07 |   1.00E-04 |       Yes
     Commutator        |   1.38E-05 |   1.00E-05 |        No
     Delta_Fermi_level |   6.15E-04 |   1.00E-03 |       Yes

  Line search of the free energy minimum:
  Step_type        Step             Free_energy   Predicted_free_energy
.   Initial    0.000000    -3651.56997365920461
.    Trial1    0.293336    -3651.57012740667960
.    Trial2    0.563258    -3651.56999162869624
. Quadratic    0.290376    -3651.57012742491588    -3651.57012742265761

--------------------------------------------------------------------------------
  Iter                              Commutator    Free_energy(A=E-TS)     DeltaA
#    3                          0.000009690974   -3651.57012742491588  -1.54E-04

Step                       =       0.290375977032
Energy                     =   -3651.570093442948
Entropy (-TS)              =      -0.000033981694
Free energy (A=E-TS)       =   -3651.570127424916
Est. 0K Energy 0.5*(E+A)   =   -3651.570110433932
Residual Non-orthogonality =       0.000000000000
Residual N_electrons       =      -0.000000000274

Spin          Integrated_Ne            Fermi_level     Delta_Fermi_level
   1      2560.000000001201         0.227976923340              4.33E-04

                           Spin 1          
     Orb      H-eigenvalues     Occupancies
       1 |    -0.4981786189    1.0000000000 | 
                          ------
    1276 |     0.1945265628    0.9999741400 | 
    1277 |     0.1950374570    0.9999696129 | 
    1278 |     0.1950589350    0.9999694061 | 
    1279 |     0.1956288355    0.9999633741 | 
    1280 |     0.1961518873    0.9999567968 | 
                 - Gap at zero temperature -
    1281 |     0.2622853273    0.0000197224 | 
    1282 |     0.2623190392    0.0000195135 | 
    1283 |     0.2624237337    0.0000188790 | 
    1284 |     0.2625292706    0.0000182602 | 
    1285 |     0.2625911298    0.0000179070 | 
                          ------
    2560 |     1.0644807663    0.0000000000 | 

                       |  Abs_value |  Threshold | Converged
     Delta_Free_energy |   1.54E-04 |   1.00E-06 |        No
     Delta_Energy      |   1.54E-04 |   1.00E-04 |        No
     Delta_Entropy     |   2.54E-07 |   1.00E-04 |       Yes
     Commutator        |   9.69E-06 |   1.00E-05 |       Yes
     Delta_Fermi_level |   4.33E-04 |   1.00E-03 |       Yes

  Line search of the free energy minimum:
  Step_type        Step             Free_energy   Predicted_free_energy
.   Initial    0.000000    -3651.57012742491588
.    Trial1    0.290376    -3651.57020058869739
.    Trial2    0.561428    -3651.57012441871711
. Quadratic    0.277894    -3651.57020073991225    -3651.57020073660397

--------------------------------------------------------------------------------
  Iter                              Commutator    Free_energy(A=E-TS)     DeltaA
#    4                          0.000006954370   -3651.57020073991225  -7.33E-05

Step                       =       0.277893927459
Energy                     =   -3651.570166925663
[...]
 C   160 -- C   385       -0.10      5.37000
 C   159 -- C   384       -0.10      5.37000
 C   158 -- C   383       -0.10      5.37000
 C   157 -- C   382       -0.10      5.37000
 C   156 -- C   381       -0.10      5.37000
 C   155 -- C   355       -0.10      5.37000
 C   154 -- C   354       -0.10      5.37000
 C   153 -- C   353       -0.10      5.37000
 C   152 -- C   352       -0.10      5.37000
 C   151 -- C   351       -0.10      5.37000
 C   140 -- C   335       -0.10      5.37000
 C   139 -- C   334       -0.10      5.37000
 C   138 -- C   333       -0.10      5.37000
 C   137 -- C   332       -0.10      5.37000
 C   136 -- C   331       -0.10      5.37000
 C   115 -- C   325       -0.10      5.37000
 C   114 -- C   324       -0.10      5.37000
 C   113 -- C   323       -0.10      5.37000
 C   112 -- C   322       -0.10      5.37000
 C   111 -- C   321       -0.10      5.37000
 C   219 -- C   569       -0.10      5.37202
 C   218 -- C   568       -0.10      5.37202
 C   217 -- C   567       -0.10      5.37202
 C   216 -- C   566       -0.10      5.37202
 C   250 -- C   540       -0.10      5.37202
 C   249 -- C   539       -0.10      5.37202
 C   248 -- C   538       -0.10      5.37202
 C   247 -- C   537       -0.10      5.37202
 C   246 -- C   536       -0.10      5.37202
 C   220 -- C   570       -0.10      5.37202
 C   285 -- C   580       -0.10      5.37202
 C   284 -- C   579       -0.10      5.37202
 C   283 -- C   578       -0.10      5.37202
 C   282 -- C   577       -0.10      5.37202
 C   281 -- C   576       -0.10      5.37202
 C   260 -- C   605       -0.10      5.37202
 C   259 -- C   604       -0.10      5.37202
 C   258 -- C   603       -0.10      5.37202
 C   257 -- C   602       -0.10      5.37202
 C   256 -- C   601       -0.10      5.37202
 C   220 -- C   515       -0.10      5.37202
 C   219 -- C   514       -0.10      5.37202
 C   218 -- C   513       -0.10      5.37202
 C   217 -- C   512       -0.10      5.37202
 C   216 -- C   511       -0.10      5.37202
 C   195 -- C   540       -0.10      5.37202
 C   195 -- C   500       -0.10      5.37202
 C   194 -- C   539       -0.10      5.37202
 C   194 -- C   499       -0.10      5.37202
 C   193 -- C   538       -0.10      5.37202
 C   193 -- C   498       -0.10      5.37202
 C   192 -- C   537       -0.10      5.37202
 C   192 -- C   497       -0.10      5.37202
 C   191 -- C   536       -0.10      5.37202
 C   191 -- C   496       -0.10      5.37202
 C   180 -- C   515       -0.10      5.37202
 C   179 -- C   514       -0.10      5.37202
 C   178 -- C   513       -0.10      5.37202
 C   177 -- C   512       -0.10      5.37202
 C   176 -- C   511       -0.10      5.37202
 C    11 -- C   331       -0.10      5.37202
 C   205 -- C   550       -0.10      5.37202
 C   204 -- C   549       -0.10      5.37202
 C   203 -- C   548       -0.10      5.37202
 C   202 -- C   547       -0.10      5.37202
 C   201 -- C   546       -0.10      5.37202
 C    95 -- C   425       -0.10      5.37202
 C    95 -- C   365       -0.10      5.37202
 C    94 -- C   424       -0.10      5.37202
 C    94 -- C   364       -0.10      5.37202
 C    93 -- C   423       -0.10      5.37202
 C    93 -- C   363       -0.10      5.37202
 C    92 -- C   422       -0.10      5.37202
 C    92 -- C   362       -0.10      5.37202
 C    91 -- C   421       -0.10      5.37202
 C    91 -- C   361       -0.10      5.37202
 C    40 -- C   365       -0.10      5.37202
 C    39 -- C   364       -0.10      5.37202
 C    38 -- C   363       -0.10      5.37202
 C    37 -- C   362       -0.10      5.37202
 C    36 -- C   361       -0.10      5.37202
 C    15 -- C   335       -0.10      5.37202
 C    65 -- C   395       -0.10      5.37202
 C    65 -- C   345       -0.10      5.37202
 C    64 -- C   394       -0.10      5.37202
 C    64 -- C   344       -0.10      5.37202
 C    63 -- C   393       -0.10      5.37202
 C    30 -- C   355       -0.10      5.37202
 C    63 -- C   343       -0.10      5.37202
 C    62 -- C   392       -0.10      5.37202
 C    30 -- C   325       -0.10      5.37202
 C    14 -- C   334       -0.10      5.37202
 C    62 -- C   342       -0.10      5.37202
 C    61 -- C   391       -0.10      5.37202
 C    29 -- C   354       -0.10      5.37202
 C    61 -- C   341       -0.10      5.37202
 C    29 -- C   324       -0.10      5.37202
 C   260 -- C   550       -0.10      5.37202
 C   259 -- C   549       -0.10      5.37202
 C    28 -- C   353       -0.10      5.37202
 C   258 -- C   548       -0.10      5.37202
 C   257 -- C   547       -0.10      5.37202
 C   256 -- C   546       -0.10      5.37202
 C    28 -- C   323       -0.10      5.37202
 C    27 -- C   352       -0.10      5.37202
 C    13 -- C   333       -0.10      5.37202
 C    27 -- C   322       -0.10      5.37202
 C   120 -- C   395       -0.10      5.37202
 C    26 -- C   351       -0.10      5.37202
 C   119 -- C   394       -0.10      5.37202
 C   118 -- C   393       -0.10      5.37202
 C    55 -- C   335       -0.10      5.37202
 C   117 -- C   392       -0.10      5.37202
 C    26 -- C   321       -0.10      5.37202
 C   116 -- C   391       -0.10      5.37202
 C    54 -- C   334       -0.10      5.37202
 C    12 -- C   332       -0.10      5.37202
 C    53 -- C   333       -0.10      5.37202
 C   230 -- C   580       -0.10      5.37202
 C   230 -- C   525       -0.10      5.37202
 C   229 -- C   579       -0.10      5.37202
 C   229 -- C   524       -0.10      5.37202
 C   228 -- C   578       -0.10      5.37202
 C    52 -- C   332       -0.10      5.37202
 C   228 -- C   523       -0.10      5.37202
 C   227 -- C   577       -0.10      5.37202
 C   227 -- C   522       -0.10      5.37202
 C   226 -- C   576       -0.10      5.37202
 C   226 -- C   521       -0.10      5.37202
 C    51 -- C   331       -0.10      5.37202
 C    23 -- C   478       -0.10      5.37202
 C    49 -- C   469       -0.10      5.37202
 C    48 -- C   468       -0.10      5.37202
 C    47 -- C   467       -0.10      5.37202
 C    22 -- C   477       -0.10      5.37202
 C    46 -- C   466       -0.10      5.37202
 C    21 -- C   476       -0.10      5.37202
 C    85 -- C   355       -0.10      5.37202
 C    84 -- C   354       -0.10      5.37202
 C    83 -- C   353       -0.10      5.37202
 C    82 -- C   352       -0.10      5.37202
 C    81 -- C   351       -0.10      5.37202
 C    55 -- C   385       -0.10      5.37202
 C    54 -- C   384       -0.10      5.37202
 C    25 -- C   480       -0.10      5.37202
 C    53 -- C   383       -0.10      5.37202
 C    52 -- C   382       -0.10      5.37202
 C    51 -- C   381       -0.10      5.37202
 C    24 -- C   479       -0.10      5.37202
 C    50 -- C   470       -0.10      5.37202
 C    24 -- C   449       -0.10      5.37202
 C     6 -- C   416       -0.10      5.37202
 C    23 -- C   448       -0.10      5.37202
 C    22 -- C   447       -0.10      5.37202
 C    10 -- C   470       -0.10      5.37202
 C     5 -- C   450       -0.10      5.37202
 C    21 -- C   446       -0.10      5.37202
 C    10 -- C   420       -0.10      5.37202
 C     9 -- C   469       -0.10      5.37202
 C     9 -- C   419       -0.10      5.37202
 C     8 -- C   468       -0.10      5.37202
 C     4 -- C   449       -0.10      5.37202
 C   150 -- C   440       -0.10      5.37202
 C   149 -- C   439       -0.10      5.37202
 C   148 -- C   438       -0.10      5.37202
 C   147 -- C   437       -0.10      5.37202
 C     8 -- C   418       -0.10      5.37202
 C   146 -- C   436       -0.10      5.37202
 C     2 -- C   447       -0.10      5.37202
 C   135 -- C   460       -0.10      5.37202
 C     7 -- C   467       -0.10      5.37202
 C   134 -- C   459       -0.10      5.37202
 C   133 -- C   458       -0.10      5.37202
 C   132 -- C   457       -0.10      5.37202
 C   131 -- C   456       -0.10      5.37202
 C     7 -- C   417       -0.10      5.37202
 C     1 -- C   446       -0.10      5.37202
 C     6 -- C   466       -0.10      5.37202
 C    25 -- C   450       -0.10      5.37202
 C     3 -- C   448       -0.10      5.37202
 C   106 -- C   436       -0.10      5.37202
 C   106 -- C   376       -0.10      5.37202
 C    80 -- C   410       -0.10      5.37202
 C    79 -- C   409       -0.10      5.37202
 C    78 -- C   408       -0.10      5.37202
 C    77 -- C   407       -0.10      5.37202
 C    76 -- C   406       -0.10      5.37202
 C   135 -- C   410       -0.10      5.37202
 C   134 -- C   409       -0.10      5.37202
 C   133 -- C   408       -0.10      5.37202
 C   132 -- C   407       -0.10      5.37202
 C   131 -- C   406       -0.10      5.37202
 C   110 -- C   440       -0.10      5.37202
 C   110 -- C   380       -0.10      5.37202
 C   109 -- C   439       -0.10      5.37202
 C   109 -- C   379       -0.10      5.37202
 C   108 -- C   438       -0.10      5.37202
 C   108 -- C   378       -0.10      5.37202
 C   107 -- C   437       -0.10      5.37202
 C   107 -- C   377       -0.10      5.37202
 C   215 -- C   635       -0.10      5.38000
 C   214 -- C   634       -0.10      5.38000
 C   213 -- C   633       -0.10      5.38000
 C   212 -- C   632       -0.10      5.38000
 C   211 -- C   631       -0.10      5.38000
 C   190 -- C   620       -0.10      5.38000
 C   189 -- C   619       -0.10      5.38000
 C   188 -- C   618       -0.10      5.38000
 C   187 -- C   617       -0.10      5.38000
 C   186 -- C   616       -0.10      5.38000
 C   175 -- C   595       -0.10      5.38000
 C   174 -- C   594       -0.10      5.38000
 C   173 -- C   593       -0.10      5.38000
 C   172 -- C   592       -0.10      5.38000
 C   171 -- C   591       -0.10      5.38000
 C   245 -- C   640       -0.10      5.38000
 C   244 -- C   639       -0.10      5.38000
 C   243 -- C   638       -0.10      5.38000
 C   242 -- C   637       -0.10      5.38000
 C   241 -- C   636       -0.10      5.38000
==================================================


=================== Orbital energy and occupancy information ===================

      Total number of orbitals:    2560
        Occupancy sum (kernel):    1280.000000000
   Occupancy sum (eigenvalues):    1280.000000000
                 HOMO-LUMO gap:       0.000023571 Eh
                 Mid-gap level:       0.301874250 Eh

                        Orbital | Energy (Eh) | Occupancy
                            1    -0.455835754   1.0000000
                        .......   ...........   .........
                         1272     0.233621238   0.9999881
                         1273     0.234035596   0.9999865
                         1274     0.234092202   0.9999862
                         1275     0.237943122   0.9999535
                         1276     0.237951452   0.9999533
                         1277     0.238392081   0.9999464
                         1278     0.238400354   0.9999462
                         1279     0.238744165   0.9999400
                         1280     0.239178208   0.9999312
                         1281     0.301862464   0.0000367
                        ....... -- gap at 0K -- .........
                         1282     0.301886035   0.0000365
                         1283     0.302116446   0.0000339
                         1284     0.302139863   0.0000337
                         1285     0.302783992   0.0000275
                         1286     0.302800348   0.0000274
                         1287     0.303054246   0.0000253
                         1288     0.303070490   0.0000252
                         1289     0.303440363   0.0000224
                         1290     0.303716419   0.0000205
                         1291     0.303753422   0.0000202
                        .......   ...........   .........
                         2560     1.162010879   0.0000000

================================================================================

===================== Writing canonical molecular orbitals =====================
| Orbital  Energy (eV)  Norm     |
| HOMO      8.21409562  1.000000 | Writing "3.2735064_GO_manual_4x64graphite_HOMO.cube" ... done
Writing "3.2735064_GO_manual_4x64graphite_HOMO.dx" ... done
| LUMO      8.21473701  1.000000 | Writing "3.2735064_GO_manual_4x64graphite_LUMO.cube" ... done
Writing "3.2735064_GO_manual_4x64graphite_LUMO.dx" ... done
================================================================================
 
===================== Density of States (DOS) calculation ======================
Writing "3.2735064_GO_manual_4x64graphite_DOS.txt" ...  done
================================================================================
 
Writing bands to file "3.2735064_GO_manual_4x64graphite.val_bands" ... done
 
================ Projected Density of States (pDOS) calculation ================
 
Constructing AM resolved functions  ...... done
Writing NGWF plot files in formats: CUBE DX ...  done
 
Performing overlap integrals ...  done
 
Computing pDOS weights ...  done
 
All bands spilling parameter =   3.92 %
Occupancy-weighted spilling parameter =   0.85 %
 
 => Outputting data for OptaDOS <=
 
Writing pDOS weights to file "3.2735064_GO_manual_4x64graphite.val_pdos_bin" ... done
 
Writing band gradients to file "3.2735064_GO_manual_4x64graphite.val_dome_bin" ... done
 
Writing Castep output cell file to "3.2735064_GO_manual_4x64graphite-out.cell" ... done
 
 => Computing Gaussian smeared pDOS <= 
Writing "3.2735064_GO_manual_4x64graphite_PDOS.txt" ...  done
 
 => Computing Occupancy-weighted Gaussian smeared pDOS <= 
Writing "3.2735064_GO_manual_4x64graphite_occ_PDOS.txt" ...  done
  => Band centres: 
 S band centre of group 1:  -15.559776 eV
 P band centre of group 1:   -8.450961 eV
  Band centres done. <=
  => Integrated number of electrons in each AM band: 
 S num electrons of group 1:  575.754886
 P num electrons of group 1: 1962.506732
  Integrated number of electrons done. <=
================================================================================

------------------------------ TIMING INFORMATION ------------------------------
AVERAGE TIME:    4557.154s on     40 node(s)                                    
TOTAL TIME:      4557.155s on     40 node(s)                                    
================= AVERAGE TIMINGS FROM ALL NODES (CUMULATIVE) ==================
|| TAG                                    #calls    cpu time   %total  Gflops ||
|| work_imbalance                       :     1        0.00s   0.000%  ------ ||
|| paw_tcore_density                    :     1        0.01s   0.000%  ------ ||
|| paw_tcore_hartree_on_grid            :     1        0.01s   0.000%  ------ ||
|| paw_sphere_density_on_grid           :     1        0.02s   0.000%  ------ ||
|| sparse_set_to_garbage                :   183        0.03s   0.001%  ------ ||
|| paw_dij_hartree                      :   392        0.05s   0.001%  ------ ||
|| pseudo_make_structure_factor         :     1        0.05s   0.001%  ------ ||
|| basis_extract_function_from_box      :  2048        0.09s   0.002%  ------ ||
|| paw_species_calc_proj_prec_mat       :     1        0.12s   0.003%  ------ ||
|| paw_dataset_init                     :     1        0.19s   0.004%  ------ ||
|| density_init_guess_real              :     1        0.20s   0.004%  ------ ||
|| ngwfs_initialise_from_radial         :     2        0.67s   0.015%  ------ ||
|| sparse_init                          :     1        0.96s   0.021%  ------ ||
|| restart_kernel_write                 :    17        0.97s   0.021%  ------ ||
|| dense_normal_eigensolve              :     1        1.03s   0.023%  ------ ||
|| hartree_on_grid                      :   295        2.06s   0.045%  ------ ||
|| ewald_calculate_energy               :     1        2.37s   0.052%  ------ ||
|| projectors_init_fftbox_recip         :   161        3.15s   0.069%  ------ ||
|| fourier_apply_box_pair               :  3040        5.04s   0.110% 560.016 ||
|| basis_copy_function_to_box           : 27840        5.94s   0.130%  ------ ||
|| augmentation_screen_dij              :   302        6.60s   0.145%  ------ ||
|| sw_init                              :     1        6.73s   0.148%  ------ ||
|| sparse_embed_hotelling_invert_embed  :    31        9.66s   0.212%  ------ ||
|| ngwf_gradient_coeffs                 :    16       13.00s   0.285%  ------ ||
|| cell_grid_extract_box_real           : 11756       16.43s   0.360%  ------ ||
|| sparse_trace                         :  3560       20.32s   0.446%  ------ ||
|| fourier_apply_cell_backward          :  9116       23.63s   0.518%  44.135 ||
|| fourier_apply_cell_forward           :  8527       24.90s   0.546%  39.174 ||
|| paw_dij_xc                           :   392       26.57s   0.583%  ------ ||
|| cell_grid_deposit_box_real           : 37936       30.23s   0.663%  ------ ||
|| aug_nonlocal_mat                     :   376       40.33s   0.885%  ------ ||
|| eigenstates_pdos                     :     1       49.96s   1.096%  ------ ||
|| eigenstates_calculate                :     1       53.90s   1.183%  ------ ||
|| augmentation_density_on_grid         :   295       57.90s   1.271%  ------ ||
|| density_fftbox_deposit_to_cell       : 18880       62.89s   1.380%  ------ ||
|| hamiltonian_energy_components        :     4       68.96s   1.513%  ------ ||
|| function_ops_brappd_ketppd           :    64       73.95s   1.623%  ------ ||
|| projectors_func_ovlp_box             :    32       78.59s   1.725%  ------ ||
|| nlxc_vdw_energy                      :   588       94.27s   2.069%  ------ ||
|| properties_calculate                 :     1       95.79s   2.102%  ------ ||
|| xc_energy_potential                  :   294       96.47s   2.117%  ------ ||
|| integrals_kinetic                    :    31      120.08s   2.635%  ------ ||
|| dense_eigensolve                     :   259      128.14s   2.812%  ------ ||
|| restart_ngwfs_tightbox_output        :    15      143.29s   3.144%  ------ ||
|| potential_apply_to_ngwf_batch        :   368      149.30s   3.276%  ------ ||
|| sparse_product                       :  3566      163.97s   3.598%  ------ ||
|| basis_dot_function_with_box          : 9.193M     250.93s   5.506%  ------ ||
|| fourier_apply_box                    : 87568      273.21s   5.995% 975.796 ||
|| projectors_gradient_batch            :    64      302.08s   6.629%  ------ ||
|| edft_diag_ngwf_ham                   :   258      304.08s   6.673%  ------ ||
|| integrals_locpot_mat_els_batch       :   368      358.40s   7.865%  ------ ||
|| density_fftbox_interpolate_multiply  : 18880      364.62s   8.001%  ------ ||
|| projectors_grad_precond_batch        :    64      443.00s   9.721%  ------ ||
|| density_batch_interp_deposit         :  1180      479.94s  10.532%  ------ ||
|| integrals_locpot_dbl_grid            :    92      509.78s  11.186%  ------ ||
|| edft_apply_smearing_operator         :   258      579.19s  12.710%  ------ ||
|| basis_add_function_to_box            : 26.10M     685.32s  15.038%  ------ ||
|| ngwf_gradient_build_batch            :    64      794.10s  17.425%  ------ ||
|| ngwf_gradient_batch                  :    64     1050.30s  23.047%  ------ ||
|| density_batch_row_sums               :  1180     1050.44s  23.050%  ------ ||
|| ngwf_gradient_lnv                    :    16     1082.32s  23.750%  ------ ||
|| density_on_dbl_grid                  :   295     1544.64s  33.895%  ------ ||
|| hamiltonian_lhxc_calculate           :   289     1670.38s  36.654%  ------ ||
|| edft_calculate                       :    16     2739.80s  60.121%  ------ ||
|| ngwf_cg_optimise                     :     1     4434.53s  97.309%  ------ ||
|| total_time                           :     1     4557.15s 100.000%  ------ ||
================================================================================
Overhead of generating timer report: 
- 0 ms averaging over threads,
- 5 ms ensuring consistency across MPI ranks,
- 0 ms printing in order.

Job completed: 24-02-2020 23:12 (-0000)

