 +---------------------------------------------------------------+
 |                                                               |
 |        ####### #     # ####### ####### ####### ######         |
 |        #     # ##    # #          #    #       #     #        |
 |        #     # # #   # #          #    #       #     #        |
 |        #     # #  #  # #####      #    #####   ######         |
 |        #     # #   # # #          #    #       #              |
 |        #     # #    ## #          #    #       #              |
 |        ####### #     # #######    #    ####### #              |
 |                                                               |
 |        Linear-Scaling Ab Initio Total Energy Program          |
 |                                                               |
 |          Release for academic collaborators of ODG            |
 |                                             Version 5.3.2.12  |
 |                                                               |
 +---------------------------------------------------------------+
 |                                                               |
 |  Authors:                                                     |
 |  Jacek Dziedzic, Peter D. Haynes, Nicholas D. M. Hine,        |
 |  Arash. A. Mostofi, Mike C. Payne and Chris-Kriton Skylaris   |
 |                                                               |
 |  Contributors:                                                |
 |  J. Aarons, L. Andrinopoulos, P. W. Avraam, R. A. Bell,       |
 |  A. Bhandari, G. A. Bramley, R. J. Charlton, S. J. Clark,     |
 |  R. J. Clements, G. C. Constantinescu, F. Corsetti,           |
 |  N. Corsini, O. Dieguez, S. M. M. Dubois, K. K. B. Duff,      |
 |  J. M. Escartin, A. Greco, H. Helal, Q. O. Hill, L. P. Lee,   |
 |  J.-H. Li, E. B. Linscott, G. Moynihan, D. D. O`Regan,        |
 |  O. K. Okan, M. J. S. Phipps, C. J. Pickard,                  |
 |  J. C. A. Prentice, M. I. J. Probert, L. E. Ratcliff,         |
 |  M. Robinson, A. Ruiz Serrano, J. S. Spencer, E. W. Tait,     |
 |  G. Teobaldi, D. Turban, V. Vitale, K. A. Wilkinson,          |
 |  C. Weber, J. C. Womack, N. Yeung and T. J. Zuehlsdorff       |
 |                                                               |
 |                                   Copyright (c) 2004-2020     |
 |                                                               |
 |  Please cite:                                                 |
 |  "Introducing ONETEP: Linear-scaling density functional       |
 |   simulations on parallel computers".                         |
 |   C.-K. Skylaris, P. D. Haynes, A. A. Mostofi, M. C. Payne.   |
 |   J. Chem. Phys. 122 084119 (2005).                           |
 |                                                               |
 |          in all publications arising from your use of ONETEP. |
 |                                                               |
 +---------------------------------------------------------------+
 |                                                               |
 |   ONETEP is based on developments described in the following  |
 |   publications:                                               |
 |                                                               |
 |  "Nonorthogonal generalized Wannier function pseudopotential  |
 |   plane-wave method".                                         |
 |   C.-K. Skylaris, A. A. Mostofi, P. D. Haynes, O. Dieguez,    |
 |   M. C. Payne.                                                |
 |   Phys. Rev. B 66 035119 (2002).                              |
 |                                                               |
 |  "Preconditioned iterative minimization for linear-scaling    |
 |   electronic structure calculations".                         |
 |   A. A. Mostofi, P. D. Haynes, C.-K. Skylaris, M. C. Payne.   |
 |   J. Chem. Phys. 119(17), pp.8842-8848 (2003).                |
 |                                                               |
 |  "Total-energy calculations on a real space grid with         |
 |   localized functions and a plane-wave basis".                |
 |   A. A. Mostofi, C.-K. Skylaris, P. D. Haynes, M. C. Payne.   |
 |   Comput. Phys. Commun. 147, pp.788-802 (2002).               |
 |                                                               |
 |  "Accurate kinetic energy evaluation in electronic structure  |
 |   calculations with localized functions on real space grids"  |
 |   C.-K. Skylaris, A. A. Mostofi, P. D. Haynes, C. J. Pickard, |
 |   M. C. Payne.                                                |
 |   Comput. Phys. Commun. 140, pp.315-322 (2001).               |
 |                                                               |
 |  "Accurate ionic forces and geometry optimization in linear-  |
 |   scaling density-functional theory with local orbitals"      |
 |   N. D. M. Hine, M. Robinson, P. D. Haynes, C.-K. Skylaris,   |
 |   M. C. Payne, and A. A. Mostofi.                             |
 |   Phys. Rev. B 83 195102 (2011).                              |
 |                                                               |
 +---------------------------------------------------------------+

Job started: 24-02-2020 22:10 (-0000)
 
Reading parameters from file "3.3271687999999995_GO_manual_4x64graphite.dat" ...

WARNING: "cutoff_energy" not specified, but "psinc_spacing" specified.
         Using the latter to set the KE cutoff energy to  732.32021eV,
         thus *overriding* the default.

... done

If your calculation crashes here, before "Checking processes and threads..."
is displayed, then your stack size is insufficient.
If so, use "ulimit -s unlimited" at runtime.
You can disable this check with "check_stack_size F".

Checking processes and threads...
   Determining the default number of threads...
      No default threads set at compilation time: defaulting to 1.
      OpenMP library call suggests 4 threads.
      Hybrid MPI-OpenMP compilation detected.
      Number of MPI processes > 1.
      OMP_NUM_THREADS environment variable present and
      its value matches the one obtained from the OpenMP library call.
      Using this value as default.
      Default threads: 4
      Default applies to threads_max and threads_num_fftboxes.
      Settings in the input file override this default.
   ... done

   Running with 40 MPI processes.
   There are 10 MPI processes running on the same node as the root process.
   Each MPI process is using: 
               1 threads for simulation cell FFTs.
               1 threads for parallel FFT box operations.
               4 threads for loops over batched FFT box operations.
               4 threads in other parallel regions.
... done

Basic input checks...
Resetting ngwf_cg_rotate to TRUE for EDFT calculations
... done

Reading geometry and species blocks from file "3.3271687999999995_GO_manual_4x64graphite.dat" ...
    
  PSINC grid spacing along a1 set to   0.511215680000a0 from input file.
  PSINC grid spacing along a2 set to   0.531284090000a0 from input file.
  PSINC grid spacing along a3 set to   0.507052480000a0 from input file.
  Number of PPD points along a3 set to 1.  This is 
  the default value, it may have been provided also in the input file.
... done
 Writing xyz coordinates to file "3.3271687999999995_GO_manual_4x64graphite.xyz" ... done


--------------------------------------------------------------------------------
---------------------------------- INPUT FILE ----------------------------------
--------------------------------------------------------------------------------

task : singlepoint                                                              
do_properties : true                                                            
dx_format T                                                                     
edft T                                                                          
output_detail VERBOSE                                                           
write_xyz T                                                                     
xc_functional OPTPBE                                                            
PSINC_SPACING 0.51121568 0.53128409 0.50705248                                  
paw T                                                                           
pdos_max_l = 2                                                                  
dos_smear  0.1 eV                                                               
popn_calculate T                                                                
PDOS_PSEUDOATOMIC T                                                             
PDOS_REDUCE_SWS F                                                               
PDOS_CONSTRUCT_BASIS F                                                          
PDOS_LOWDIN T                                                                   
PDOS_ORTH_ATOM_BLOCKS F                                                         
PDOS_LCAO_OPTIMIZE F                                                            
pdos_optados_output T                                                           
homo_plot 0                                                                     
lumo_plot 0                                                                     
homo_dens_plot -1                                                               
lumo_dens_plot -1                                                               
%BLOCK SPECIES                                                                  
C C 6 4 9.0                                                                     
%ENDBLOCK SPECIES                                                               
%BLOCK SPECIES_POT                                                              
C "~/pp/paw/c_pbe_abinit.paw"                                                   
%ENDBLOCK SPECIES_POT                                                           
%BLOCK SPECIES_ATOMIC_SET                                                       
C "SOLVE conf=2s2 2p2"                                                          
%ENDBLOCK SPECIES_ATOMIC_SET                                                    
%BLOCK LATTICE_CART                                                             
32.21  0.00  0.00                                                               
0.00 18.59  0.00                                                                
0.00  0.00 62.87                                                                
%ENDBLOCK LATTICE_CART                                                          
%BLOCK POSITIONS_ABS                                                            
C  0.00  0.00  3.14                                                             
C  0.00  0.00 15.72                                                             
C  0.00  0.00 28.29                                                             
C  0.00  0.00 40.87                                                             
C  0.00  0.00 53.44                                                             
C  0.00  4.65  3.14                                                             
C  0.00  4.65 15.72                                                             
C  0.00  4.65 28.29                                                             
C  0.00  4.65 40.87                                                             
C  0.00  4.65 53.44                                                             
C  4.03  2.32  3.14                                                             
C  4.03  2.32 15.72                                                             
C  4.03  2.32 28.29                                                             
C  4.03  2.32 40.87                                                             
C  4.03  2.32 53.44                                                             
C  8.05  0.00  3.14                                                             
C  8.05  0.00 15.72                                                             
C  8.05  0.00 28.29                                                             
C  8.05  0.00 40.87                                                             
C  8.05  0.00 53.44                                                             
C  0.00  9.30  3.14                                                             
C  0.00  9.30 15.72                                                             
C  0.00  9.30 28.29                                                             
C  0.00  9.30 40.87                                                             
C  0.00  9.30 53.44                                                             
C  4.03  6.97  3.14                                                             
C  4.03  6.97 15.72                                                             
C  4.03  6.97 28.29                                                             
C  4.03  6.97 40.87                                                             
C  4.03  6.97 53.44                                                             
C  8.05  4.65  3.14                                                             
C  8.05  4.65 15.72                                                             
C  8.05  4.65 28.29                                                             
C  8.05  4.65 40.87                                                             
C  8.05  4.65 53.44                                                             
C 12.08  2.32  3.14                                                             
C 12.08  2.32 15.72                                                             
C 12.08  2.32 28.29                                                             
C 12.08  2.32 40.87                                                             
C 12.08  2.32 53.44                                                             
C 16.10  0.00  3.14                                                             
C 16.10  0.00 15.72                                                             
C 16.10  0.00 28.29                                                             
C 16.10  0.00 40.87                                                             
C 16.10  0.00 53.44                                                             
C  0.00 13.95  3.14                                                             
C  0.00 13.95 15.72                                                             
C  0.00 13.95 28.29                                                             
C  0.00 13.95 40.87                                                             
C  0.00 13.95 53.44                                                             
C  4.03 11.62  3.14                                                             
C  4.03 11.62 15.72                                                             
C  4.03 11.62 28.29                                                             
C  4.03 11.62 40.87                                                             
C  4.03 11.62 53.44                                                             
C  8.05  9.30  3.14                                                             
C  8.05  9.30 15.72                                                             
C  8.05  9.30 28.29                                                             
C  8.05  9.30 40.87                                                             
C  8.05  9.30 53.44                                                             
C 12.08  6.97  3.14                                                             
C 12.08  6.97 15.72                                                             
C 12.08  6.97 28.29                                                             
C 12.08  6.97 40.87                                                             
C 12.08  6.97 53.44                                                             
C 16.10  4.65  3.14                                                             
C 16.10  4.65 15.72                                                             
C 16.10  4.65 28.29                                                             
C 16.10  4.65 40.87                                                             
C 16.10  4.65 53.44                                                             
C 20.13  2.32  3.14                                                             
C 20.13  2.32 15.72                                                             
C 20.13  2.32 28.29                                                             
C 20.13  2.32 40.87                                                             
C 20.13  2.32 53.44                                                             
C 24.16  0.00  3.14                                                             
C 24.16  0.00 15.72                                                             
C 24.16  0.00 28.29                                                             
C 24.16  0.00 40.87                                                             
C 24.16  0.00 53.44                                                             
C  4.03 16.27  3.14                                                             
C  4.03 16.27 15.72                                                             
C  4.03 16.27 28.29                                                             
C  4.03 16.27 40.87                                                             
C  4.03 16.27 53.44                                                             
C  8.05 13.95  3.14                                                             
C  8.05 13.95 15.72                                                             
C  8.05 13.95 28.29                                                             
C  8.05 13.95 40.87                                                             
C  8.05 13.95 53.44                                                             
C 12.08 11.62  3.14                                                             
C 12.08 11.62 15.72                                                             
C 12.08 11.62 28.29                                                             
C 12.08 11.62 40.87                                                             
C 12.08 11.62 53.44                                                             
C 16.10  9.30  3.14                                                             
C 16.10  9.30 15.72                                                             
C 16.10  9.30 28.29                                                             
C 16.10  9.30 40.87                                                             
C 16.10  9.30 53.44                                                             
C 20.13  6.97  3.14                                                             
C 20.13  6.97 15.72                                                             
C 20.13  6.97 28.29                                                             
C 20.13  6.97 40.87                                                             
C 20.13  6.97 53.44                                                             
C 24.16  4.65  3.14                                                             
C 24.16  4.65 15.72                                                             
C 24.16  4.65 28.29                                                             
C 24.16  4.65 40.87                                                             
C 24.16  4.65 53.44                                                             
C 28.18  2.32  3.14                                                             
C 28.18  2.32 15.72                                                             
C 28.18  2.32 28.29                                                             
C 28.18  2.32 40.87                                                             
C 28.18  2.32 53.44                                                             
C 12.08 16.27  3.14                                                             
C 12.08 16.27 15.72                                                             
C 12.08 16.27 28.29                                                             
C 12.08 16.27 40.87                                                             
C 12.08 16.27 53.44                                                             
C 16.10 13.95  3.14                                                             
C 16.10 13.95 15.72                                                             
C 16.10 13.95 28.29                                                             
C 16.10 13.95 40.87                                                             
C 16.10 13.95 53.44                                                             
C 20.13 11.62  3.14                                                             
C 20.13 11.62 15.72                                                             
C 20.13 11.62 28.29                                                             
C 20.13 11.62 40.87                                                             
C 20.13 11.62 53.44                                                             
C 24.16  9.30  3.14                                                             
C 24.16  9.30 15.72                                                             
C 24.16  9.30 28.29                                                             
C 24.16  9.30 40.87                                                             
C 24.16  9.30 53.44                                                             
C 28.18  6.97  3.14                                                             
C 28.18  6.97 15.72                                                             
C 28.18  6.97 28.29                                                             
C 28.18  6.97 40.87                                                             
C 28.18  6.97 53.44                                                             
C 20.13 16.27  3.14                                                             
C 20.13 16.27 15.72                                                             
C 20.13 16.27 28.29                                                             
C 20.13 16.27 40.87                                                             
C 20.13 16.27 53.44                                                             
C 24.16 13.95  3.14                                                             
C 24.16 13.95 15.72                                                             
C 24.16 13.95 28.29                                                             
C 24.16 13.95 40.87                                                             
C 24.16 13.95 53.44                                                             
C 28.18 11.62  3.14                                                             
C 28.18 11.62 15.72                                                             
C 28.18 11.62 28.29                                                             
C 28.18 11.62 40.87                                                             
C 28.18 11.62 53.44                                                             
C 28.18 16.27  3.14                                                             
C 28.18 16.27 15.72                                                             
C 28.18 16.27 28.29                                                             
C 28.18 16.27 40.87                                                             
C 28.18 16.27 53.44                                                             
C  0.00  0.00  9.43                                                             
C  0.00  0.00 22.01                                                             
C  0.00  0.00 34.58                                                             
C  0.00  0.00 47.16                                                             
C  0.00  0.00 59.73                                                             
C  0.00  4.65  9.43                                                             
C  0.00  4.65 22.01                                                             
C  0.00  4.65 34.58                                                             
C  0.00  4.65 47.16                                                             
C  0.00  4.65 59.73                                                             
C  4.03  2.32  9.43                                                             
C  4.03  2.32 22.01                                                             
C  4.03  2.32 34.58                                                             
C  4.03  2.32 47.16                                                             
C  4.03  2.32 59.73                                                             
C  8.05  0.00  9.43                                                             
C  8.05  0.00 22.01                                                             
C  8.05  0.00 34.58                                                             
C  8.05  0.00 47.16                                                             
C  8.05  0.00 59.73                                                             
C  0.00  9.30  9.43                                                             
C  0.00  9.30 22.01                                                             
C  0.00  9.30 34.58                                                             
C  0.00  9.30 47.16                                                             
C  0.00  9.30 59.73                                                             
C  4.03  6.97  9.43                                                             
C  4.03  6.97 22.01                                                             
C  4.03  6.97 34.58                                                             
C  4.03  6.97 47.16                                                             
C  4.03  6.97 59.73                                                             
C  8.05  4.65  9.43                                                             
C  8.05  4.65 22.01                                                             
C  8.05  4.65 34.58                                                             
C  8.05  4.65 47.16                                                             
C  8.05  4.65 59.73                                                             
C 12.08  2.32  9.43                                                             
C 12.08  2.32 22.01                                                             
C 12.08  2.32 34.58                                                             
C 12.08  2.32 47.16                                                             
C 12.08  2.32 59.73                                                             
C 16.10  0.00  9.43                                                             
C 16.10  0.00 22.01                                                             
C 16.10  0.00 34.58                                                             
C 16.10  0.00 47.16                                                             
C 16.10  0.00 59.73                                                             
C  0.00 13.95  9.43                                                             
C  0.00 13.95 22.01                                                             
C  0.00 13.95 34.58                                                             
C  0.00 13.95 47.16                                                             
C  0.00 13.95 59.73                                                             
C  4.03 11.62  9.43                                                             
C  4.03 11.62 22.01                                                             
C  4.03 11.62 34.58                                                             
C  4.03 11.62 47.16                                                             
C  4.03 11.62 59.73                                                             
C  8.05  9.30  9.43                                                             
C  8.05  9.30 22.01                                                             
C  8.05  9.30 34.58                                                             
C  8.05  9.30 47.16                                                             
C  8.05  9.30 59.73                                                             
C 12.08  6.97  9.43                                                             
C 12.08  6.97 22.01                                                             
C 12.08  6.97 34.58                                                             
C 12.08  6.97 47.16                                                             
C 12.08  6.97 59.73                                                             
C 16.10  4.65  9.43                                                             
C 16.10  4.65 22.01                                                             
C 16.10  4.65 34.58                                                             
C 16.10  4.65 47.16                                                             
C 16.10  4.65 59.73                                                             
C 20.13  2.32  9.43                                                             
C 20.13  2.32 22.01                                                             
C 20.13  2.32 34.58                                                             
C 20.13  2.32 47.16                                                             
C 20.13  2.32 59.73                                                             
C 24.16  0.00  9.43                                                             
C 24.16  0.00 22.01                                                             
C 24.16  0.00 34.58                                                             
C 24.16  0.00 47.16                                                             
C 24.16  0.00 59.73                                                             
C  4.03 16.27  9.43                                                             
C  4.03 16.27 22.01                                                             
C  4.03 16.27 34.58                                                             
C  4.03 16.27 47.16                                                             
C  4.03 16.27 59.73                                                             
C  8.05 13.95  9.43                                                             
C  8.05 13.95 22.01                                                             
C  8.05 13.95 34.58                                                             
C  8.05 13.95 47.16                                                             
C  8.05 13.95 59.73                                                             
C 12.08 11.62  9.43                                                             
C 12.08 11.62 22.01                                                             
C 12.08 11.62 34.58                                                             
C 12.08 11.62 47.16                                                             
C 12.08 11.62 59.73                                                             
C 16.10  9.30  9.43                                                             
C 16.10  9.30 22.01                                                             
C 16.10  9.30 34.58                                                             
C 16.10  9.30 47.16                                                             
C 16.10  9.30 59.73                                                             
C 20.13  6.97  9.43                                                             
C 20.13  6.97 22.01                                                             
C 20.13  6.97 34.58                                                             
C 20.13  6.97 47.16                                                             
C 20.13  6.97 59.73                                                             
C 24.16  4.65  9.43                                                             
C 24.16  4.65 22.01                                                             
C 24.16  4.65 34.58                                                             
C 24.16  4.65 47.16                                                             
C 24.16  4.65 59.73                                                             
C 28.18  2.32  9.43                                                             
C 28.18  2.32 22.01                                                             
C 28.18  2.32 34.58                                                             
C 28.18  2.32 47.16                                                             
C 28.18  2.32 59.73                                                             
C 12.08 16.27  9.43                                                             
C 12.08 16.27 22.01                                                             
C 12.08 16.27 34.58                                                             
C 12.08 16.27 47.16                                                             
C 12.08 16.27 59.73                                                             
C 16.10 13.95  9.43                                                             
C 16.10 13.95 22.01                                                             
C 16.10 13.95 34.58                                                             
C 16.10 13.95 47.16                                                             
C 16.10 13.95 59.73                                                             
C 20.13 11.62  9.43                                                             
C 20.13 11.62 22.01                                                             
C 20.13 11.62 34.58                                                             
C 20.13 11.62 47.16                                                             
C 20.13 11.62 59.73                                                             
C 24.16  9.30  9.43                                                             
C 24.16  9.30 22.01                                                             
C 24.16  9.30 34.58                                                             
C 24.16  9.30 47.16                                                             
C 24.16  9.30 59.73                                                             
C 28.18  6.97  9.43                                                             
C 28.18  6.97 22.01                                                             
C 28.18  6.97 34.58                                                             
C 28.18  6.97 47.16                                                             
C 28.18  6.97 59.73                                                             
C 20.13 16.27  9.43                                                             
C 20.13 16.27 22.01                                                             
C 20.13 16.27 34.58                                                             
C 20.13 16.27 47.16                                                             
C 20.13 16.27 59.73                                                             
C 24.16 13.95  9.43                                                             
C 24.16 13.95 22.01                                                             
C 24.16 13.95 34.58                                                             
C 24.16 13.95 47.16                                                             
C 24.16 13.95 59.73                                                             
C 28.18 11.62  9.43                                                             
C 28.18 11.62 22.01                                                             
C 28.18 11.62 34.58                                                             
C 28.18 11.62 47.16                                                             
C 28.18 11.62 59.73                                                             
C 28.18 16.27  9.43                                                             
C 28.18 16.27 22.01                                                             
C 28.18 16.27 34.58                                                             
C 28.18 16.27 47.16                                                             
C 28.18 16.27 59.73                                                             
C  1.34  2.32  3.14                                                             
C  1.34  2.32 15.72                                                             
C  1.34  2.32 28.29                                                             
C  1.34  2.32 40.87                                                             
C  1.34  2.32 53.44                                                             
C  5.37  0.00  3.14                                                             
C  5.37  0.00 15.72                                                             
C  5.37  0.00 28.29                                                             
C  5.37  0.00 40.87                                                             
C  5.37  0.00 53.44                                                             
C  1.34  6.97  3.14                                                             
C  1.34  6.97 15.72                                                             
C  1.34  6.97 28.29                                                             
C  1.34  6.97 40.87                                                             
C  1.34  6.97 53.44                                                             
C  5.37  4.65  3.14                                                             
C  5.37  4.65 15.72                                                             
C  5.37  4.65 28.29                                                             
C  5.37  4.65 40.87                                                             
C  5.37  4.65 53.44                                                             
C  9.39  2.32  3.14                                                             
C  9.39  2.32 15.72                                                             
C  9.39  2.32 28.29                                                             
C  9.39  2.32 40.87                                                             
C  9.39  2.32 53.44                                                             
C 13.42  0.00  3.14                                                             
C 13.42  0.00 15.72                                                             
C 13.42  0.00 28.29                                                             
C 13.42  0.00 40.87                                                             
C 13.42  0.00 53.44                                                             
C  1.34 11.62  3.14                                                             
C  1.34 11.62 15.72                                                             
C  1.34 11.62 28.29                                                             
C  1.34 11.62 40.87                                                             
C  1.34 11.62 53.44                                                             
C  5.37  9.30  3.14                                                             
C  5.37  9.30 15.72                                                             
C  5.37  9.30 28.29                                                             
C  5.37  9.30 40.87                                                             
C  5.37  9.30 53.44                                                             
C  9.39  6.97  3.14                                                             
C  9.39  6.97 15.72                                                             
C  9.39  6.97 28.29                                                             
C  9.39  6.97 40.87                                                             
C  9.39  6.97 53.44                                                             
C 13.42  4.65  3.14                                                             
C 13.42  4.65 15.72                                                             
C 13.42  4.65 28.29                                                             
C 13.42  4.65 40.87                                                             
C 13.42  4.65 53.44                                                             
C 17.45  2.32  3.14                                                             
C 17.45  2.32 15.72                                                             
C 17.45  2.32 28.29                                                             
C 17.45  2.32 40.87                                                             
C 17.45  2.32 53.44                                                             
C 21.47  0.00  3.14                                                             
C 21.47  0.00 15.72                                                             
C 21.47  0.00 28.29                                                             
C 21.47  0.00 40.87                                                             
C 21.47  0.00 53.44                                                             
C  1.34 16.27  3.14                                                             
C  1.34 16.27 15.72                                                             
C  1.34 16.27 28.29                                                             
C  1.34 16.27 40.87                                                             
C  1.34 16.27 53.44                                                             
C  5.37 13.95  3.14                                                             
C  5.37 13.95 15.72                                                             
C  5.37 13.95 28.29                                                             
C  5.37 13.95 40.87                                                             
C  5.37 13.95 53.44                                                             
C  9.39 11.62  3.14                                                             
C  9.39 11.62 15.72                                                             
C  9.39 11.62 28.29                                                             
C  9.39 11.62 40.87                                                             
C  9.39 11.62 53.44                                                             
C 13.42  9.30  3.14                                                             
C 13.42  9.30 15.72                                                             
C 13.42  9.30 28.29                                                             
C 13.42  9.30 40.87                                                             
C 13.42  9.30 53.44                                                             
C 17.45  6.97  3.14                                                             
C 17.45  6.97 15.72                                                             
C 17.45  6.97 28.29                                                             
C 17.45  6.97 40.87                                                             
C 17.45  6.97 53.44                                                             
C 21.47  4.65  3.14                                                             
C 21.47  4.65 15.72                                                             
C 21.47  4.65 28.29                                                             
C 21.47  4.65 40.87                                                             
C 21.47  4.65 53.44                                                             
C 25.50  2.32  3.14                                                             
C 25.50  2.32 15.72                                                             
C 25.50  2.32 28.29                                                             
C 25.50  2.32 40.87                                                             
C 25.50  2.32 53.44                                                             
C 29.52  0.00  3.14                                                             
C 29.52  0.00 15.72                                                             
C 29.52  0.00 28.29                                                             
C 29.52  0.00 40.87                                                             
C 29.52  0.00 53.44                                                             
C  9.39 16.27  3.14                                                             
C  9.39 16.27 15.72                                                             
C  9.39 16.27 28.29                                                             
C  9.39 16.27 40.87                                                             
C  9.39 16.27 53.44                                                             
C 13.42 13.95  3.14                                                             
C 13.42 13.95 15.72                                                             
C 13.42 13.95 28.29                                                             
C 13.42 13.95 40.87                                                             
C 13.42 13.95 53.44                                                             
C 17.45 11.62  3.14                                                             
C 17.45 11.62 15.72                                                             
C 17.45 11.62 28.29                                                             
C 17.45 11.62 40.87                                                             
C 17.45 11.62 53.44                                                             
C 21.47  9.30  3.14                                                             
C 21.47  9.30 15.72                                                             
C 21.47  9.30 28.29                                                             
C 21.47  9.30 40.87                                                             
C 21.47  9.30 53.44                                                             
C 25.50  6.97  3.14                                                             
C 25.50  6.97 15.72                                                             
C 25.50  6.97 28.29                                                             
C 25.50  6.97 40.87                                                             
C 25.50  6.97 53.44                                                             
C 29.52  4.65  3.14                                                             
C 29.52  4.65 15.72                                                             
C 29.52  4.65 28.29                                                             
C 29.52  4.65 40.87                                                             
C 29.52  4.65 53.44                                                             
C 17.45 16.27  3.14                                                             
C 17.45 16.27 15.72                                                             
C 17.45 16.27 28.29                                                             
C 17.45 16.27 40.87                                                             
C 17.45 16.27 53.44                                                             
C 21.47 13.95  3.14                                                             
C 21.47 13.95 15.72                                                             
C 21.47 13.95 28.29                                                             
C 21.47 13.95 40.87                                                             
C 21.47 13.95 53.44                                                             
C 25.50 11.62  3.14                                                             
C 25.50 11.62 15.72                                                             
C 25.50 11.62 28.29                                                             
C 25.50 11.62 40.87                                                             
C 25.50 11.62 53.44                                                             
C 29.52  9.30  3.14                                                             
C 29.52  9.30 15.72                                                             
C 29.52  9.30 28.29                                                             
C 29.52  9.30 40.87                                                             
C 29.52  9.30 53.44                                                             
C 25.50 16.27  3.14                                                             
C 25.50 16.27 15.72                                                             
C 25.50 16.27 28.29                                                             
C 25.50 16.27 40.87                                                             
C 25.50 16.27 53.44                                                             
C 29.52 13.95  3.14                                                             
C 29.52 13.95 15.72                                                             
C 29.52 13.95 28.29                                                             
C 29.52 13.95 40.87                                                             
C 29.52 13.95 53.44                                                             
C  2.68  0.00  9.43                                                             
C  2.68  0.00 22.01                                                             
C  2.68  0.00 34.58                                                             
C  2.68  0.00 47.16                                                             
C  2.68  0.00 59.73                                                             
C  2.68  4.65  9.43                                                             
C  2.68  4.65 22.01                                                             
C  2.68  4.65 34.58                                                             
C  2.68  4.65 47.16                                                             
C  2.68  4.65 59.73                                                             
C  6.71  2.32  9.43                                                             
C  6.71  2.32 22.01                                                             
C  6.71  2.32 34.58                                                             
C  6.71  2.32 47.16                                                             
C  6.71  2.32 59.73                                                             
C 10.74  0.00  9.43                                                             
C 10.74  0.00 22.01                                                             
C 10.74  0.00 34.58                                                             
C 10.74  0.00 47.16                                                             
C 10.74  0.00 59.73                                                             
C  2.68  9.30  9.43                                                             
C  2.68  9.30 22.01                                                             
C  2.68  9.30 34.58                                                             
C  2.68  9.30 47.16                                                             
C  2.68  9.30 59.73                                                             
C  6.71  6.97  9.43                                                             
C  6.71  6.97 22.01                                                             
C  6.71  6.97 34.58                                                             
C  6.71  6.97 47.16                                                             
C  6.71  6.97 59.73                                                             
C 10.74  4.65  9.43                                                             
C 10.74  4.65 22.01                                                             
C 10.74  4.65 34.58                                                             
C 10.74  4.65 47.16                                                             
C 10.74  4.65 59.73                                                             
C 14.76  2.32  9.43                                                             
C 14.76  2.32 22.01                                                             
C 14.76  2.32 34.58                                                             
C 14.76  2.32 47.16                                                             
C 14.76  2.32 59.73                                                             
C 18.79  0.00  9.43                                                             
C 18.79  0.00 22.01                                                             
C 18.79  0.00 34.58                                                             
C 18.79  0.00 47.16                                                             
C 18.79  0.00 59.73                                                             
C  2.68 13.95  9.43                                                             
C  2.68 13.95 22.01                                                             
C  2.68 13.95 34.58                                                             
C  2.68 13.95 47.16                                                             
C  2.68 13.95 59.73                                                             
C  6.71 11.62  9.43                                                             
C  6.71 11.62 22.01                                                             
C  6.71 11.62 34.58                                                             
C  6.71 11.62 47.16                                                             
C  6.71 11.62 59.73                                                             
C 10.74  9.30  9.43                                                             
C 10.74  9.30 22.01                                                             
C 10.74  9.30 34.58                                                             
C 10.74  9.30 47.16                                                             
C 10.74  9.30 59.73                                                             
C 14.76  6.97  9.43                                                             
C 14.76  6.97 22.01                                                             
C 14.76  6.97 34.58                                                             
C 14.76  6.97 47.16                                                             
C 14.76  6.97 59.73                                                             
C 18.79  4.65  9.43                                                             
C 18.79  4.65 22.01                                                             
C 18.79  4.65 34.58                                                             
C 18.79  4.65 47.16                                                             
C 18.79  4.65 59.73                                                             
C 22.81  2.32  9.43                                                             
C 22.81  2.32 22.01                                                             
C 22.81  2.32 34.58                                                             
C 22.81  2.32 47.16                                                             
C 22.81  2.32 59.73                                                             
C 26.84  0.00  9.43                                                             
C 26.84  0.00 22.01                                                             
C 26.84  0.00 34.58                                                             
C 26.84  0.00 47.16                                                             
C 26.84  0.00 59.73                                                             
C  6.71 16.27  9.43                                                             
C  6.71 16.27 22.01                                                             
C  6.71 16.27 34.58                                                             
C  6.71 16.27 47.16                                                             
C  6.71 16.27 59.73                                                             
C 10.74 13.95  9.43                                                             
C 10.74 13.95 22.01                                                             
C 10.74 13.95 34.58                                                             
C 10.74 13.95 47.16                                                             
C 10.74 13.95 59.73                                                             
C 14.76 11.62  9.43                                                             
C 14.76 11.62 22.01                                                             
C 14.76 11.62 34.58                                                             
C 14.76 11.62 47.16                                                             
C 14.76 11.62 59.73                                                             
C 18.79  9.30  9.43                                                             
C 18.79  9.30 22.01                                                             
C 18.79  9.30 34.58                                                             
C 18.79  9.30 47.16                                                             
C 18.79  9.30 59.73                                                             
C 22.81  6.97  9.43                                                             
C 22.81  6.97 22.01                                                             
C 22.81  6.97 34.58                                                             
C 22.81  6.97 47.16                                                             
C 22.81  6.97 59.73                                                             
C 26.84  4.65  9.43                                                             
C 26.84  4.65 22.01                                                             
C 26.84  4.65 34.58                                                             
C 26.84  4.65 47.16                                                             
C 26.84  4.65 59.73                                                             
C 30.86  2.32  9.43                                                             
C 30.86  2.32 22.01                                                             
C 30.86  2.32 34.58                                                             
C 30.86  2.32 47.16                                                             
C 30.86  2.32 59.73                                                             
C 14.76 16.27  9.43                                                             
C 14.76 16.27 22.01                                                             
C 14.76 16.27 34.58                                                             
C 14.76 16.27 47.16                                                             
C 14.76 16.27 59.73                                                             
C 18.79 13.95  9.43                                                             
C 18.79 13.95 22.01                                                             
C 18.79 13.95 34.58                                                             
C 18.79 13.95 47.16                                                             
C 18.79 13.95 59.73                                                             
C 22.81 11.62  9.43                                                             
C 22.81 11.62 22.01                                                             
C 22.81 11.62 34.58                                                             
C 22.81 11.62 47.16                                                             
C 22.81 11.62 59.73                                                             
C 26.84  9.30  9.43                                                             
C 26.84  9.30 22.01                                                             
C 26.84  9.30 34.58                                                             
C 26.84  9.30 47.16                                                             
C 26.84  9.30 59.73                                                             
C 30.86  6.97  9.43                                                             
C 30.86  6.97 22.01                                                             
C 30.86  6.97 34.58                                                             
C 30.86  6.97 47.16                                                             
C 30.86  6.97 59.73                                                             
C 22.81 16.27  9.43                                                             
C 22.81 16.27 22.01                                                             
C 22.81 16.27 34.58                                                             
C 22.81 16.27 47.16                                                             
C 22.81 16.27 59.73                                                             
C 26.84 13.95  9.43                                                             
C 26.84 13.95 22.01                                                             
C 26.84 13.95 34.58                                                             
C 26.84 13.95 47.16                                                             
C 26.84 13.95 59.73                                                             
C 30.86 11.62  9.43                                                             
C 30.86 11.62 22.01                                                             
C 30.86 11.62 34.58                                                             
C 30.86 11.62 47.16                                                             
C 30.86 11.62 59.73                                                             
C 30.86 16.27  9.43                                                             
C 30.86 16.27 22.01                                                             
C 30.86 16.27 34.58                                                             
C 30.86 16.27 47.16                                                             
C 30.86 16.27 59.73                                                             
%ENDBLOCK POSITIONS_ABS                                                         

--------------------------------------------------------------------------------
-------------------------------- END INPUT FILE --------------------------------
--------------------------------------------------------------------------------


 
<<<<<<<<<<<<<<<<<<<<<<<<<<<<<<<<< Full system >>>>>>>>>>>>>>>>>>>>>>>>>>>>>>>>>>
<<<<<<<<<<<<<<<<<<<<<<<<<<< PAW Dataset information >>>>>>>>>>>>>>>>>>>>>>>>>>>
File: ~/pp/paw/c_pbe_abinit.paw; rc = 1.25 bohr; shape type =  3; rshape = 1.25 bohr;
  Atomic number:  6;  ionic charge:  4.000000
    Partial Wave 1: l = 0
    Partial Wave 2: l = 0
    Partial Wave 3: l = 1
    Partial Wave 4: l = 1
  Core charge supplied for Nonlinear Core Corrections
<<<<<<<<<<<<<<<<<<<<<<<<<<<<<<<<<<<<<<< >>>>>>>>>>>>>>>>>>>>>>>>>>>>>>>>>>>>>>>

-------------------------- Atom counting information ---------------------------
Symbol    Natoms    Nngwfs    Nprojs
  C        640      2560      5120
.......   ......    ......    ......
Totals:    640      2560      5120
--------------------------------------------------------------------------------

=============================== PSINC grid sizes ===============================
                      Simulation cell:   63 x  35 x 124
                              FFT-box:   63 x  35 x 117
                                  PPD:    7 x   5 x   1
Grid space d1=  0.511269841270a0 (KE cutoff=  29.06054Eh = 790.77748eV)
Grid space d2=  0.531142857143a0 (KE cutoff=  26.92659Eh = 732.70972eV)
Grid space d3=  0.507016129032a0 (KE cutoff=  29.55020Eh = 804.10191eV)
================================================================================
  
WARNING in cell_grid_distribute:
Average of less than one 23-slab per node, so workload cannot be
equally balanced between nodes.

********************* Fourier parallelisation information **********************
       Coarse grid (whole simulation cell) dimensions:     63    35   124
          Real-space ('12') slabs/node (min max mean):      3     4     3
         Recip-space ('23') slabs/node (min max mean):      0     1     0
********************************************************************************

********************* Fourier parallelisation information **********************
       Double grid (whole simulation cell) dimensions:    126    70   248
          Real-space ('12') slabs/node (min max mean):      6     7     6
         Recip-space ('23') slabs/node (min max mean):      1     2     1
********************************************************************************

Atom SCF Calculation for C  : Z (AE atom) =   6 : Z (PS atom) =   4
Config String: 2s2 2p2
Orbitals (num,occ):  2     2.00 2.00
Orbitals   (num,l):  2        0    1
Real-space Grid (nr,dr,rmax): 1293    0.0069659443    9.0000000000
Spherical Bessel Basis (nsws,lmax,cutoff):   37    2  161.4736382572
Confining potential (l,width,scale):  0    3.0000000000  100.0000000000
Confining potential (l,width,scale):  1    3.0000000000  100.0000000000
  1         -5.4795203654   -1.3252209296    4.5135257941   -1.6370402169
  2         -5.4480859746   -1.4027979239    4.4305951748   -1.6109819005
  3         -5.4553164790   -1.4212834043    4.4102618304   -1.6059039466
  4         -5.4627841133   -1.4247091338    4.4065122085   -1.6052907585
  5         -5.4662306655   -1.4266814823    4.4043715292   -1.6049352647
  6         -5.4679520247   -1.4277352742    4.4032348712   -1.6047493439
  7         -5.4688359568   -1.4282868030    4.4026432892   -1.6046541449
  8         -5.4692951245   -1.4285734530    4.4023374832   -1.6046056242
  9         -5.4695349887   -1.4287220785    4.4021797781   -1.6045809101
 10         -5.4696606791   -1.4287991022    4.4020984905   -1.6045683155
 11         -5.4697266650   -1.4288390363    4.4020565747   -1.6045618912
 12         -5.4697613504   -1.4288597596    4.4020349416   -1.6045586107
 13         -5.4697795998   -1.4288705262    4.4020237638   -1.6045569335
 14         -5.4697892089   -1.4288761271    4.4020179806   -1.6045560749
 15         -5.4697942720   -1.4288790448    4.4020149844   -1.6045556348
 16         -5.4697969415   -1.4288805668    4.4020134298   -1.6045554088
 17         -5.4697983498   -1.4288813619    4.4020126220   -1.6045552927
 18         -5.4697990933   -1.4288817779    4.4020122017   -1.6045552329
 19         -5.4697994860   -1.4288819957    4.4020119826   -1.6045552021
 20         -5.4697996936   -1.4288821100    4.4020118683   -1.6045551862
 21         -5.4697998034   -1.4288821701    4.4020118085   -1.6045551780
 22         -5.4697998614   -1.4288822017    4.4020117772   -1.6045551737
Atom SCF converged after  22 iterations to a total energy of     -5.46979986

Determining parallel strategy ...
... using space-filling curve
... NGWF load balancing: max     64;  min     64;  average     64
... Projector load balancing: max    128;  min    128;  average    128
... done
Calculating Ewald energy ...
              Ewald: real-space energy =    9505.276468
        Ewald: reciprocal-space energy =       0.077735
         Ewald: (sum_charge)**2 Energy =   11345.372302
         Ewald: (sum_charge**2) Energy =     896.930434
                          Ewald Energy =   -2736.948535
Basis initialisation ...... NGWF spheres initialised
... Projector spheres initialised
... NGWF tight boxes initialised
... Projector tight boxes initialised
... Tight-boxes gathered
... NGWF basis size (local,global):     695092  27900064
... PAW projector initialisation
... done

============================= Charge Augmentation ==============================
                           Aug box size:   11 x  11 x  11
================================================================================

========================== Sparse matrix information ===========================
                        Overlap matrix filling:  44.38%
                        Density kernel filling: 100.00%
              NGWF-Proj overlap matrix filling:  13.12%
                    Aug Overlap matrix filling:  47.81%
                    Hamiltonian matrix filling:  47.81%
                  NGWF diagonal matrix filling:   0.16%
                             KS matrix filling: 100.00% 
                           KSKS matrix filling: 100.00% 
================================================================================

Sparse matrix initialisation ... done
NGWF initialisation ...... done
============ Calculation of NGWF S^-1 using Hotelling algorithm ================ 
         Iteration  |  Frobenius norm and Maximum abs value    (of I-S*S_n^-1)   
               1       0.49166515E+02     0.97734260E+00
               2       0.48011703E+02     0.95650428E+00
               3       0.46258090E+02     0.91930593E+00
               4       0.43953407E+02     0.85803764E+00
               5       0.41170133E+02     0.76681290E+00
               6       0.37887446E+02     0.68669587E+00
               7       0.34385052E+02     0.63723344E+00
               8       0.31030709E+02     0.59595582E+00
               9       0.27540906E+02     0.55344521E+00
              10       0.23200870E+02     0.48886252E+00
              11       0.17520285E+02     0.38498359E+00
              12       0.10794761E+02     0.24351435E+00
              13       0.46490146E+01     0.10317519E+00
              14       0.10307679E+01     0.21064190E-01
              15       0.60973438E-01     0.10769878E-02
              16       0.27464641E-03     0.36558066E-05
              17       0.84217804E-08     0.68293371E-10
              18       0.82252886E-13     0.45519144E-14
================================================================================
Calculating core density ...
================================= Core Density =================================
               Core den box size:   21 x  21 x  21
================================================================================
 ... done
Up spin density kernel initialisation ...... done

Writing density kernel to file "3.3271687999999995_GO_manual_4x64graphite.dkn" ... done

>>> Optimising kernel for current NGWFs:

--------------------------- Ensemble-DFT optimisation --------------------------
Running ScaLAPACK on   40 processor(s).

--------------------------------------------------------------------------------
  Iter                              Commutator    Free_energy(A=E-TS)     DeltaA
#    0                          0.000039643106   -3651.21775966470113  -3.65E+03

Step                       =       0.381966011250
Energy                     =   -3651.217725904165
Entropy (-TS)              =      -0.000033760322
Free energy (A=E-TS)       =   -3651.217759664701
Est. 0K Energy 0.5*(E+A)   =   -3651.217742784434
Residual Non-orthogonality =       0.000000000000
Residual N_electrons       =      -0.000000000214

Spin          Integrated_Ne            Fermi_level     Delta_Fermi_level
   1      2560.000000000986         0.216829951362              2.17E-01

                           Spin 1          
     Orb      H-eigenvalues     Occupancies
       1 |    -0.5077279553    1.0000000000 | 
                          ------
    1276 |     0.1832380017    0.9999752708 | 
    1277 |     0.1838340090    0.9999701500 | 
    1278 |     0.1838601165    0.9999699029 | 
    1279 |     0.1843257279    0.9999651361 | 
    1280 |     0.1849403989    0.9999576680 | 
                 - Gap at zero temperature -
    1281 |     0.2513117694    0.0000186714 | 
    1282 |     0.2513185954    0.0000186312 | 
    1283 |     0.2514069827    0.0000181184 | 
    1284 |     0.2515392397    0.0000173773 | 
    1285 |     0.2515461198    0.0000173396 | 
                          ------
    2560 |     1.0511028626    0.0000000000 | 

                       |  Abs_value |  Threshold | Converged
     Delta_Free_energy |   3.65E+03 |   1.00E-06 |        No
     Delta_Energy      |   3.65E+03 |   1.00E-04 |        No
     Delta_Entropy     |   3.38E-05 |   1.00E-04 |       Yes
     Commutator        |   3.96E-05 |   1.00E-05 |        No
     Delta_Fermi_level |   2.17E-01 |   1.00E-03 |        No

  Line search of the free energy minimum:
  Step_type        Step             Free_energy   Predicted_free_energy
.   Initial    0.000000    -3651.21775966470113
.    Trial1    0.381966    -3651.21936052358478
.    Trial2    0.618034    -3651.21931203887561
. Quadratic    0.485564    -3651.21943637651339    -3651.21943687144403

--------------------------------------------------------------------------------
  Iter                              Commutator    Free_energy(A=E-TS)     DeltaA
#    1                          0.000020836155   -3651.21943637651339  -1.68E-03

Step                       =       0.485564087609
Energy                     =   -3651.219403398683
Entropy (-TS)              =      -0.000032977784
Free energy (A=E-TS)       =   -3651.219436376513
Est. 0K Energy 0.5*(E+A)   =   -3651.219419887598
Residual Non-orthogonality =       0.000000000000
Residual N_electrons       =      -0.000000000047

Spin          Integrated_Ne            Fermi_level     Delta_Fermi_level
   1      2560.000000000214         0.218477216730              1.65E-03

                           Spin 1          
     Orb      H-eigenvalues     Occupancies
       1 |    -0.5070781578    1.0000000000 | 
                          ------
    1276 |     0.1848717102    0.9999753764 | 
    1277 |     0.1853560514    0.9999713072 | 
    1278 |     0.1853620610    0.9999712527 | 
    1279 |     0.1859876176    0.9999649747 | 
    1280 |     0.1864706734    0.9999592033 | 
                 - Gap at zero temperature -
    1281 |     0.2530032484    0.0000184126 | 
    1282 |     0.2530255423    0.0000182834 | 
    1283 |     0.2531221312    0.0000177342 | 
    1284 |     0.2532531156    0.0000170156 | 
    1285 |     0.2532594569    0.0000169816 | 
                          ------
    2560 |     1.0538494324    0.0000000000 | 

                       |  Abs_value |  Threshold | Converged
     Delta_Free_energy |   1.68E-03 |   1.00E-06 |        No
     Delta_Energy      |   1.68E-03 |   1.00E-04 |        No
     Delta_Entropy     |   7.83E-07 |   1.00E-04 |       Yes
     Commutator        |   2.08E-05 |   1.00E-05 |        No
     Delta_Fermi_level |   1.65E-03 |   1.00E-03 |        No

  Line search of the free energy minimum:
  Step_type        Step             Free_energy   Predicted_free_energy
.   Initial    0.000000    -3651.21943637651339
.    Trial1    0.485564    -3651.21962150239915
.    Trial2    0.682061    -3651.21907594210415
. Quadratic    0.283958    -3651.21981042838934    -3651.21980967358331

--------------------------------------------------------------------------------
  Iter                              Commutator    Free_energy(A=E-TS)     DeltaA
#    2                          0.000013153181   -3651.21981042838934  -3.74E-04

Step                       =       0.283958071872
Energy                     =   -3651.219777755268
Entropy (-TS)              =      -0.000032673464
Free energy (A=E-TS)       =   -3651.219810428389
Est. 0K Energy 0.5*(E+A)   =   -3651.219794091829
Residual Non-orthogonality =       0.000000000000
Residual N_electrons       =       0.000000000342

Spin          Integrated_Ne            Fermi_level     Delta_Fermi_level
   1      2559.999999998437         0.218945529309              4.68E-04

                           Spin 1          
     Orb      H-eigenvalues     Occupancies
       1 |    -0.5068910195    1.0000000000 | 
                          ------
    1276 |     0.1852896147    0.9999757652 | 
    1277 |     0.1858092582    0.9999714438 | 
    1278 |     0.1858169198    0.9999713746 | 
    1279 |     0.1864018655    0.9999655675 | 
    1280 |     0.1869217332    0.9999594249 | 
                 - Gap at zero temperature -
    1281 |     0.2535094966    0.0000181933 | 
    1282 |     0.2535337724    0.0000180544 | 
    1283 |     0.2536273981    0.0000175284 | 
    1284 |     0.2537683962    0.0000167651 | 
    1285 |     0.2537757060    0.0000167265 | 
                          ------
    2560 |     1.0546556219    0.0000000000 | 

                       |  Abs_value |  Threshold | Converged
     Delta_Free_energy |   3.74E-04 |   1.00E-06 |        No
     Delta_Energy      |   3.74E-04 |   1.00E-04 |        No
     Delta_Entropy     |   3.04E-07 |   1.00E-04 |       Yes
     Commutator        |   1.32E-05 |   1.00E-05 |        No
     Delta_Fermi_level |   4.68E-04 |   1.00E-03 |       Yes

  Line search of the free energy minimum:
  Step_type        Step             Free_energy   Predicted_free_energy
.   Initial    0.000000    -3651.21981042838934
.    Trial1    0.283958    -3651.21995234757787
.    Trial2    0.557462    -3651.21985908592069
. Quadratic    0.307667    -3651.21995318223480    -3651.21995319536381

--------------------------------------------------------------------------------
  Iter                              Commutator    Free_energy(A=E-TS)     DeltaA
#    3                          0.000009237569   -3651.21995318223480  -1.43E-04

Step                       =       0.307666894513
Energy                     =   -3651.219920733459
Entropy (-TS)              =      -0.000032448779
Free energy (A=E-TS)       =   -3651.219953182235
Est. 0K Energy 0.5*(E+A)   =   -3651.219936957847
Residual Non-orthogonality =       0.000000000000
Residual N_electrons       =       0.000000000003

Spin          Integrated_Ne            Fermi_level     Delta_Fermi_level
   1      2559.999999999988         0.219310674806              3.65E-04

                           Spin 1          
     Orb      H-eigenvalues     Occupancies
       1 |    -0.5067399763    1.0000000000 | 
                          ------
    1276 |     0.1856277796    0.9999759708 | 
    1277 |     0.1861546181    0.9999716216 | 
    1278 |     0.1861630600    0.9999715459 | 
    1279 |     0.1867394232    0.9999658662 | 
    1280 |     0.1872672335    0.9999596758 | 
                 - Gap at zero temperature -
    1281 |     0.2538982808    0.0000180580 | 
    1282 |     0.2539233262    0.0000179158 | 
    1283 |     0.2540165414    0.0000173961 | 
    1284 |     0.2541587833    0.0000166320 | 
    1285 |     0.2541667402    0.0000165903 | 
                          ------
    2560 |     1.0552932480    0.0000000000 | 

                       |  Abs_value |  Threshold | Converged
     Delta_Free_energy |   1.43E-04 |   1.00E-06 |        No
     Delta_Energy      |   1.43E-04 |   1.00E-04 |        No
     Delta_Entropy     |   2.25E-07 |   1.00E-04 |       Yes
     Commutator        |   9.24E-06 |   1.00E-05 |       Yes
     Delta_Fermi_level |   3.65E-04 |   1.00E-03 |       Yes

  Line search of the free energy minimum:
  Step_type        Step             Free_energy   Predicted_free_energy
.   Initial    0.000000    -3651.21995318223480
.    Trial1    0.307667    -3651.22001935270691
.    Trial2    0.572115    -3651.21994086688710
. Quadratic    0.274027    -3651.22002037302036    -3651.22002036514914

--------------------------------------------------------------------------------
  Iter                              Commutator    Free_energy(A=E-TS)     DeltaA
#    4                          0.000006500157   -3651.22002037302036  -6.72E-05

Step                       =       0.274027384692
[...]
 C   158 -- C   383       -0.10      5.37000
 C   157 -- C   382       -0.10      5.37000
 C   156 -- C   381       -0.10      5.37000
 C   155 -- C   355       -0.10      5.37000
 C   154 -- C   354       -0.10      5.37000
 C   153 -- C   353       -0.10      5.37000
 C   152 -- C   352       -0.10      5.37000
 C   151 -- C   351       -0.10      5.37000
 C   140 -- C   335       -0.10      5.37000
 C   139 -- C   334       -0.10      5.37000
 C   138 -- C   333       -0.10      5.37000
 C   137 -- C   332       -0.10      5.37000
 C   136 -- C   331       -0.10      5.37000
 C   115 -- C   325       -0.10      5.37000
 C   114 -- C   324       -0.10      5.37000
 C   113 -- C   323       -0.10      5.37000
 C   112 -- C   322       -0.10      5.37000
 C   111 -- C   321       -0.10      5.37000
 C   219 -- C   569       -0.10      5.37202
 C   218 -- C   568       -0.10      5.37202
 C   217 -- C   567       -0.10      5.37202
 C   216 -- C   566       -0.10      5.37202
 C   250 -- C   540       -0.10      5.37202
 C   249 -- C   539       -0.10      5.37202
 C   248 -- C   538       -0.10      5.37202
 C   247 -- C   537       -0.10      5.37202
 C   246 -- C   536       -0.10      5.37202
 C   220 -- C   570       -0.10      5.37202
 C   285 -- C   580       -0.10      5.37202
 C   284 -- C   579       -0.10      5.37202
 C   283 -- C   578       -0.10      5.37202
 C   282 -- C   577       -0.10      5.37202
 C   281 -- C   576       -0.10      5.37202
 C   260 -- C   605       -0.10      5.37202
 C   259 -- C   604       -0.10      5.37202
 C   258 -- C   603       -0.10      5.37202
 C   257 -- C   602       -0.10      5.37202
 C   256 -- C   601       -0.10      5.37202
 C   220 -- C   515       -0.10      5.37202
 C   219 -- C   514       -0.10      5.37202
 C   218 -- C   513       -0.10      5.37202
 C   217 -- C   512       -0.10      5.37202
 C   216 -- C   511       -0.10      5.37202
 C   195 -- C   540       -0.10      5.37202
 C   195 -- C   500       -0.10      5.37202
 C   194 -- C   539       -0.10      5.37202
 C   194 -- C   499       -0.10      5.37202
 C   193 -- C   538       -0.10      5.37202
 C   193 -- C   498       -0.10      5.37202
 C   192 -- C   537       -0.10      5.37202
 C   192 -- C   497       -0.10      5.37202
 C   191 -- C   536       -0.10      5.37202
 C   191 -- C   496       -0.10      5.37202
 C   180 -- C   515       -0.10      5.37202
 C   179 -- C   514       -0.10      5.37202
 C   178 -- C   513       -0.10      5.37202
 C   177 -- C   512       -0.10      5.37202
 C   176 -- C   511       -0.10      5.37202
 C    11 -- C   331       -0.10      5.37202
 C   205 -- C   550       -0.10      5.37202
 C   204 -- C   549       -0.10      5.37202
 C   203 -- C   548       -0.10      5.37202
 C   202 -- C   547       -0.10      5.37202
 C   201 -- C   546       -0.10      5.37202
 C    95 -- C   425       -0.10      5.37202
 C    95 -- C   365       -0.10      5.37202
 C    94 -- C   424       -0.10      5.37202
 C    94 -- C   364       -0.10      5.37202
 C    93 -- C   423       -0.10      5.37202
 C    93 -- C   363       -0.10      5.37202
 C    92 -- C   422       -0.10      5.37202
 C    92 -- C   362       -0.10      5.37202
 C    91 -- C   421       -0.10      5.37202
 C    91 -- C   361       -0.10      5.37202
 C    40 -- C   365       -0.10      5.37202
 C    39 -- C   364       -0.10      5.37202
 C    38 -- C   363       -0.10      5.37202
 C    37 -- C   362       -0.10      5.37202
 C    36 -- C   361       -0.10      5.37202
 C    15 -- C   335       -0.10      5.37202
 C    65 -- C   395       -0.10      5.37202
 C    65 -- C   345       -0.10      5.37202
 C    64 -- C   394       -0.10      5.37202
 C    64 -- C   344       -0.10      5.37202
 C    63 -- C   393       -0.10      5.37202
 C    30 -- C   355       -0.10      5.37202
 C    63 -- C   343       -0.10      5.37202
 C    62 -- C   392       -0.10      5.37202
 C    30 -- C   325       -0.10      5.37202
 C    14 -- C   334       -0.10      5.37202
 C    62 -- C   342       -0.10      5.37202
 C    61 -- C   391       -0.10      5.37202
 C    29 -- C   354       -0.10      5.37202
 C    61 -- C   341       -0.10      5.37202
 C    29 -- C   324       -0.10      5.37202
 C   260 -- C   550       -0.10      5.37202
 C   259 -- C   549       -0.10      5.37202
 C    28 -- C   353       -0.10      5.37202
 C   258 -- C   548       -0.10      5.37202
 C   257 -- C   547       -0.10      5.37202
 C   256 -- C   546       -0.10      5.37202
 C    28 -- C   323       -0.10      5.37202
 C    27 -- C   352       -0.10      5.37202
 C    13 -- C   333       -0.10      5.37202
 C    27 -- C   322       -0.10      5.37202
 C   120 -- C   395       -0.10      5.37202
 C    26 -- C   351       -0.10      5.37202
 C   119 -- C   394       -0.10      5.37202
 C   118 -- C   393       -0.10      5.37202
 C    55 -- C   335       -0.10      5.37202
 C   117 -- C   392       -0.10      5.37202
 C    26 -- C   321       -0.10      5.37202
 C   116 -- C   391       -0.10      5.37202
 C    54 -- C   334       -0.10      5.37202
 C    12 -- C   332       -0.10      5.37202
 C    53 -- C   333       -0.10      5.37202
 C   230 -- C   580       -0.10      5.37202
 C   230 -- C   525       -0.10      5.37202
 C   229 -- C   579       -0.10      5.37202
 C   229 -- C   524       -0.10      5.37202
 C   228 -- C   578       -0.10      5.37202
 C    52 -- C   332       -0.10      5.37202
 C   228 -- C   523       -0.10      5.37202
 C   227 -- C   577       -0.10      5.37202
 C   227 -- C   522       -0.10      5.37202
 C   226 -- C   576       -0.10      5.37202
 C   226 -- C   521       -0.10      5.37202
 C    51 -- C   331       -0.10      5.37202
 C    23 -- C   478       -0.10      5.37202
 C    49 -- C   469       -0.10      5.37202
 C    48 -- C   468       -0.10      5.37202
 C    47 -- C   467       -0.10      5.37202
 C    22 -- C   477       -0.10      5.37202
 C    46 -- C   466       -0.10      5.37202
 C    21 -- C   476       -0.10      5.37202
 C    85 -- C   355       -0.10      5.37202
 C    84 -- C   354       -0.10      5.37202
 C    83 -- C   353       -0.10      5.37202
 C    82 -- C   352       -0.10      5.37202
 C    81 -- C   351       -0.10      5.37202
 C    55 -- C   385       -0.10      5.37202
 C    54 -- C   384       -0.10      5.37202
 C    25 -- C   480       -0.10      5.37202
 C    53 -- C   383       -0.10      5.37202
 C    52 -- C   382       -0.10      5.37202
 C    51 -- C   381       -0.10      5.37202
 C    24 -- C   479       -0.10      5.37202
 C    50 -- C   470       -0.10      5.37202
 C    24 -- C   449       -0.10      5.37202
 C     6 -- C   416       -0.10      5.37202
 C    23 -- C   448       -0.10      5.37202
 C    22 -- C   447       -0.10      5.37202
 C    10 -- C   470       -0.10      5.37202
 C     5 -- C   450       -0.10      5.37202
 C    21 -- C   446       -0.10      5.37202
 C    10 -- C   420       -0.10      5.37202
 C     9 -- C   469       -0.10      5.37202
 C     9 -- C   419       -0.10      5.37202
 C     8 -- C   468       -0.10      5.37202
 C     4 -- C   449       -0.10      5.37202
 C   150 -- C   440       -0.10      5.37202
 C   149 -- C   439       -0.10      5.37202
 C   148 -- C   438       -0.10      5.37202
 C   147 -- C   437       -0.10      5.37202
 C     8 -- C   418       -0.10      5.37202
 C   146 -- C   436       -0.10      5.37202
 C     2 -- C   447       -0.10      5.37202
 C   135 -- C   460       -0.10      5.37202
 C     7 -- C   467       -0.10      5.37202
 C   134 -- C   459       -0.10      5.37202
 C   133 -- C   458       -0.10      5.37202
 C   132 -- C   457       -0.10      5.37202
 C   131 -- C   456       -0.10      5.37202
 C     7 -- C   417       -0.10      5.37202
 C     1 -- C   446       -0.10      5.37202
 C     6 -- C   466       -0.10      5.37202
 C    25 -- C   450       -0.10      5.37202
 C     3 -- C   448       -0.10      5.37202
 C   106 -- C   436       -0.10      5.37202
 C   106 -- C   376       -0.10      5.37202
 C    80 -- C   410       -0.10      5.37202
 C    79 -- C   409       -0.10      5.37202
 C    78 -- C   408       -0.10      5.37202
 C    77 -- C   407       -0.10      5.37202
 C    76 -- C   406       -0.10      5.37202
 C   135 -- C   410       -0.10      5.37202
 C   134 -- C   409       -0.10      5.37202
 C   133 -- C   408       -0.10      5.37202
 C   132 -- C   407       -0.10      5.37202
 C   131 -- C   406       -0.10      5.37202
 C   110 -- C   440       -0.10      5.37202
 C   110 -- C   380       -0.10      5.37202
 C   109 -- C   439       -0.10      5.37202
 C   109 -- C   379       -0.10      5.37202
 C   108 -- C   438       -0.10      5.37202
 C   108 -- C   378       -0.10      5.37202
 C   107 -- C   437       -0.10      5.37202
 C   107 -- C   377       -0.10      5.37202
 C   215 -- C   635       -0.10      5.38000
 C   214 -- C   634       -0.10      5.38000
 C   213 -- C   633       -0.10      5.38000
 C   212 -- C   632       -0.10      5.38000
 C   211 -- C   631       -0.10      5.38000
 C   190 -- C   620       -0.10      5.38000
 C   189 -- C   619       -0.10      5.38000
 C   188 -- C   618       -0.10      5.38000
 C   187 -- C   617       -0.10      5.38000
 C   186 -- C   616       -0.10      5.38000
 C   175 -- C   595       -0.10      5.38000
 C   174 -- C   594       -0.10      5.38000
 C   173 -- C   593       -0.10      5.38000
 C   172 -- C   592       -0.10      5.38000
 C   171 -- C   591       -0.10      5.38000
 C   245 -- C   640       -0.10      5.38000
 C   244 -- C   639       -0.10      5.38000
 C   243 -- C   638       -0.10      5.38000
 C   242 -- C   637       -0.10      5.38000
 C   241 -- C   636       -0.10      5.38000
==================================================


=================== Orbital energy and occupancy information ===================

      Total number of orbitals:    2560
        Occupancy sum (kernel):    1280.000000000
   Occupancy sum (eigenvalues):    1280.000000000
                 HOMO-LUMO gap:       0.063060220 Eh
                 Mid-gap level:       0.263633408 Eh

                        Orbital | Energy (Eh) | Occupancy
                            1    -0.461940469   1.0000000
                        .......   ...........   .........
                         1271     0.226495309   0.9999886
                         1272     0.226502045   0.9999886
                         1273     0.226966722   0.9999868
                         1274     0.226973489   0.9999867
                         1275     0.230749009   0.9999563
                         1276     0.230762410   0.9999561
                         1277     0.231202655   0.9999496
                         1278     0.231215880   0.9999494
                         1279     0.231662454   0.9999417
                         1280     0.232103298   0.9999330
                        ....... -- gap at 0K -- .........
                         1281     0.295163517   0.0000335
                         1282     0.295173116   0.0000334
                         1283     0.295416428   0.0000309
                         1284     0.295426308   0.0000308
                         1285     0.295982661   0.0000259
                         1286     0.295985661   0.0000259
                         1287     0.296251273   0.0000238
                         1288     0.296254458   0.0000238
                         1289     0.296574508   0.0000215
                         1290     0.296833263   0.0000197
                        .......   ...........   .........
                         2560     1.155149572   0.0000000

================================================================================

===================== Writing canonical molecular orbitals =====================
| Orbital  Energy (eV)  Norm     |
| HOMO      6.31585210  1.000000 | Writing "3.3271687999999995_GO_manual_4x64graphite_HOMO.cube" ... done
Writing "3.3271687999999995_GO_manual_4x64graphite_HOMO.dx" ... done
| LUMO      8.03180800  1.000000 | Writing "3.3271687999999995_GO_manual_4x64graphite_LUMO.cube" ... done
Writing "3.3271687999999995_GO_manual_4x64graphite_LUMO.dx" ... done
================================================================================
 
===================== Density of States (DOS) calculation ======================
Writing "3.3271687999999995_GO_manual_4x64graphite_DOS.txt" ...  done
================================================================================
 
Writing bands to file "3.3271687999999995_GO_manual_4x64graphite.val_bands" ... done
 
================ Projected Density of States (pDOS) calculation ================
 
Constructing AM resolved functions  ...... done
Writing NGWF plot files in formats: CUBE DX ...  done
 
Performing overlap integrals ...  done
 
Computing pDOS weights ...  done
 
All bands spilling parameter =   3.83 %
Occupancy-weighted spilling parameter =   0.86 %
 
 => Outputting data for OptaDOS <=
 
Writing pDOS weights to file "3.3271687999999995_GO_manual_4x64graphite.val_pdos_bin" ... done
 
Writing band gradients to file "3.3271687999999995_GO_manual_4x64graphite.val_dome_bin" ... done
 
Writing Castep output cell file to "3.3271687999999995_GO_manual_4x64graphite-out.cell" ... done
 
 => Computing Gaussian smeared pDOS <= 
Writing "3.3271687999999995_GO_manual_4x64graphite_PDOS.txt" ...  done
 
 => Computing Occupancy-weighted Gaussian smeared pDOS <= 
Writing "3.3271687999999995_GO_manual_4x64graphite_occ_PDOS.txt" ...  done
  => Band centres: 
 S band centre of group 1:  -13.850640 eV
 P band centre of group 1:   -6.739481 eV
  Band centres done. <=
  => Integrated number of electrons in each AM band: 
 S num electrons of group 1:  575.696070
 P num electrons of group 1: 1962.250217
  Integrated number of electrons done. <=
================================================================================

------------------------------ TIMING INFORMATION ------------------------------
AVERAGE TIME:    4010.243s on     40 node(s)                                    
TOTAL TIME:      4010.244s on     40 node(s)                                    
================= AVERAGE TIMINGS FROM ALL NODES (CUMULATIVE) ==================
|| TAG                                    #calls    cpu time   %total  Gflops ||
|| work_imbalance                       :     1        0.00s   0.000%  ------ ||
|| paw_tcore_density                    :     1        0.01s   0.000%  ------ ||
|| paw_tcore_hartree_on_grid            :     1        0.01s   0.000%  ------ ||
|| paw_sphere_density_on_grid           :     1        0.01s   0.000%  ------ ||
|| sparse_set_to_garbage                :   171        0.03s   0.001%  ------ ||
|| paw_dij_hartree                      :   356        0.04s   0.001%  ------ ||
|| pseudo_make_structure_factor         :     1        0.05s   0.001%  ------ ||
|| basis_extract_function_from_box      :  1920        0.08s   0.002%  ------ ||
|| paw_species_calc_proj_prec_mat       :     1        0.12s   0.003%  ------ ||
|| density_init_guess_real              :     1        0.19s   0.005%  ------ ||
|| paw_dataset_init                     :     1        0.20s   0.005%  ------ ||
|| ngwfs_initialise_from_radial         :     2        0.67s   0.017%  ------ ||
|| sparse_init                          :     1        0.95s   0.024%  ------ ||
|| dense_normal_eigensolve              :     1        0.96s   0.024%  ------ ||
|| restart_kernel_write                 :    16        0.98s   0.025%  ------ ||
|| hartree_on_grid                      :   267        1.59s   0.040%  ------ ||
|| ewald_calculate_energy               :     1        2.42s   0.060%  ------ ||
|| projectors_init_fftbox_recip         :   151        2.93s   0.073%  ------ ||
|| fourier_apply_box_pair               :  2848        4.70s   0.117% 561.633 ||
|| basis_copy_function_to_box           : 25280        5.47s   0.136%  ------ ||
|| augmentation_screen_dij              :   272        6.04s   0.151%  ------ ||
|| sw_init                              :     1        6.73s   0.168%  ------ ||
|| sparse_embed_hotelling_invert_embed  :    29        8.95s   0.223%  ------ ||
|| ngwf_gradient_coeffs                 :    15       11.97s   0.298%  ------ ||
|| cell_grid_extract_box_real           : 10636       15.90s   0.397%  ------ ||
|| fourier_apply_cell_backward          :  8248       16.79s   0.419%  57.166 ||
|| sparse_trace                         :  3226       17.75s   0.443%  ------ ||
|| fourier_apply_cell_forward           :  7715       18.32s   0.457%  49.024 ||
|| cell_grid_deposit_box_real           : 34352       22.25s   0.555%  ------ ||
|| paw_dij_xc                           :   356       23.89s   0.596%  ------ ||
|| aug_nonlocal_mat                     :   341       36.31s   0.905%  ------ ||
|| density_fftbox_deposit_to_cell       : 17088       44.67s   1.114%  ------ ||
|| hamiltonian_energy_components        :     3       49.77s   1.241%  ------ ||
|| augmentation_density_on_grid         :   267       51.99s   1.297%  ------ ||
|| eigenstates_pdos                     :     1       53.24s   1.328%  ------ ||
|| eigenstates_calculate                :     1       57.50s   1.434%  ------ ||
|| function_ops_brappd_ketppd           :    60       62.11s   1.549%  ------ ||
|| nlxc_vdw_energy                      :   532       71.36s   1.779%  ------ ||
|| projectors_func_ovlp_box             :    30       71.96s   1.794%  ------ ||
|| xc_energy_potential                  :   266       78.78s   1.965%  ------ ||
|| properties_calculate                 :     1      103.32s   2.576%  ------ ||
|| integrals_kinetic                    :    29      104.82s   2.614%  ------ ||
|| dense_eigensolve                     :   234      109.22s   2.724%  ------ ||
|| potential_apply_to_ngwf_batch        :   332      130.25s   3.248%  ------ ||
|| restart_ngwfs_tightbox_output        :    14      134.27s   3.348%  ------ ||
|| sparse_product                       :  3255      148.05s   3.692%  ------ ||
|| basis_dot_function_with_box          : 8.380M     229.07s   5.712%  ------ ||
|| fourier_apply_box                    : 79664      247.54s   6.173% 977.906 ||
|| edft_diag_ngwf_ham                   :   233      251.68s   6.276%  ------ ||
|| projectors_gradient_batch            :    60      281.45s   7.018%  ------ ||
|| integrals_locpot_mat_els_batch       :   332      305.00s   7.606%  ------ ||
|| density_fftbox_interpolate_multiply  : 17088      331.35s   8.263%  ------ ||
|| projectors_grad_precond_batch        :    60      414.26s  10.330%  ------ ||
|| density_batch_interp_deposit         :  1068      417.75s  10.417%  ------ ||
|| integrals_locpot_dbl_grid            :    83      436.90s  10.895%  ------ ||
|| edft_apply_smearing_operator         :   233      497.45s  12.404%  ------ ||
|| basis_add_function_to_box            : 23.77M     625.35s  15.594%  ------ ||
|| ngwf_gradient_build_batch            :    60      741.16s  18.482%  ------ ||
|| density_batch_row_sums               :  1068      872.60s  21.759%  ------ ||
|| ngwf_gradient_batch                  :    60      979.70s  24.430%  ------ ||
|| ngwf_gradient_lnv                    :    15     1010.09s  25.188%  ------ ||
|| density_on_dbl_grid                  :   267     1303.55s  32.505%  ------ ||
|| hamiltonian_lhxc_calculate           :   262     1412.18s  35.214%  ------ ||
|| edft_calculate                       :    15     2337.20s  58.281%  ------ ||
|| ngwf_cg_optimise                     :     1     3881.60s  96.792%  ------ ||
|| total_time                           :     1     4010.24s 100.000%  ------ ||
================================================================================
Overhead of generating timer report: 
- 0 ms averaging over threads,
- 5 ms ensuring consistency across MPI ranks,
- 0 ms printing in order.

Job completed: 24-02-2020 23:17 (-0000)

