 +---------------------------------------------------------------+
 |                                                               |
 |        ####### #     # ####### ####### ####### ######         |
 |        #     # ##    # #          #    #       #     #        |
 |        #     # # #   # #          #    #       #     #        |
 |        #     # #  #  # #####      #    #####   ######         |
 |        #     # #   # # #          #    #       #              |
 |        #     # #    ## #          #    #       #              |
 |        ####### #     # #######    #    ####### #              |
 |                                                               |
 |        Linear-Scaling Ab Initio Total Energy Program          |
 |                                                               |
 |          Release for academic collaborators of ODG            |
 |                                             Version 5.3.2.12  |
 |                                                               |
 +---------------------------------------------------------------+
 |                                                               |
 |  Authors:                                                     |
 |  Jacek Dziedzic, Peter D. Haynes, Nicholas D. M. Hine,        |
 |  Arash. A. Mostofi, Mike C. Payne and Chris-Kriton Skylaris   |
 |                                                               |
 |  Contributors:                                                |
 |  J. Aarons, L. Andrinopoulos, P. W. Avraam, R. A. Bell,       |
 |  A. Bhandari, G. A. Bramley, R. J. Charlton, S. J. Clark,     |
 |  R. J. Clements, G. C. Constantinescu, F. Corsetti,           |
 |  N. Corsini, O. Dieguez, S. M. M. Dubois, K. K. B. Duff,      |
 |  J. M. Escartin, A. Greco, H. Helal, Q. O. Hill, L. P. Lee,   |
 |  J.-H. Li, E. B. Linscott, G. Moynihan, D. D. O`Regan,        |
 |  O. K. Okan, M. J. S. Phipps, C. J. Pickard,                  |
 |  J. C. A. Prentice, M. I. J. Probert, L. E. Ratcliff,         |
 |  M. Robinson, A. Ruiz Serrano, J. S. Spencer, E. W. Tait,     |
 |  G. Teobaldi, D. Turban, V. Vitale, K. A. Wilkinson,          |
 |  C. Weber, J. C. Womack, N. Yeung and T. J. Zuehlsdorff       |
 |                                                               |
 |                                   Copyright (c) 2004-2020     |
 |                                                               |
 |  Please cite:                                                 |
 |  "Introducing ONETEP: Linear-scaling density functional       |
 |   simulations on parallel computers".                         |
 |   C.-K. Skylaris, P. D. Haynes, A. A. Mostofi, M. C. Payne.   |
 |   J. Chem. Phys. 122 084119 (2005).                           |
 |                                                               |
 |          in all publications arising from your use of ONETEP. |
 |                                                               |
 +---------------------------------------------------------------+
 |                                                               |
 |   ONETEP is based on developments described in the following  |
 |   publications:                                               |
 |                                                               |
 |  "Nonorthogonal generalized Wannier function pseudopotential  |
 |   plane-wave method".                                         |
 |   C.-K. Skylaris, A. A. Mostofi, P. D. Haynes, O. Dieguez,    |
 |   M. C. Payne.                                                |
 |   Phys. Rev. B 66 035119 (2002).                              |
 |                                                               |
 |  "Preconditioned iterative minimization for linear-scaling    |
 |   electronic structure calculations".                         |
 |   A. A. Mostofi, P. D. Haynes, C.-K. Skylaris, M. C. Payne.   |
 |   J. Chem. Phys. 119(17), pp.8842-8848 (2003).                |
 |                                                               |
 |  "Total-energy calculations on a real space grid with         |
 |   localized functions and a plane-wave basis".                |
 |   A. A. Mostofi, C.-K. Skylaris, P. D. Haynes, M. C. Payne.   |
 |   Comput. Phys. Commun. 147, pp.788-802 (2002).               |
 |                                                               |
 |  "Accurate kinetic energy evaluation in electronic structure  |
 |   calculations with localized functions on real space grids"  |
 |   C.-K. Skylaris, A. A. Mostofi, P. D. Haynes, C. J. Pickard, |
 |   M. C. Payne.                                                |
 |   Comput. Phys. Commun. 140, pp.315-322 (2001).               |
 |                                                               |
 |  "Accurate ionic forces and geometry optimization in linear-  |
 |   scaling density-functional theory with local orbitals"      |
 |   N. D. M. Hine, M. Robinson, P. D. Haynes, C.-K. Skylaris,   |
 |   M. C. Payne, and A. A. Mostofi.                             |
 |   Phys. Rev. B 83 195102 (2011).                              |
 |                                                               |
 +---------------------------------------------------------------+

Job started: 24-02-2020 22:13 (-0000)
 
Reading parameters from file "3.354_GO_manual_4x64graphite.dat" ...

WARNING: "cutoff_energy" not specified, but "psinc_spacing" specified.
         Using the latter to set the KE cutoff energy to  732.32021eV,
         thus *overriding* the default.

... done

If your calculation crashes here, before "Checking processes and threads..."
is displayed, then your stack size is insufficient.
If so, use "ulimit -s unlimited" at runtime.
You can disable this check with "check_stack_size F".

Checking processes and threads...
   Determining the default number of threads...
      No default threads set at compilation time: defaulting to 1.
      OpenMP library call suggests 4 threads.
      Hybrid MPI-OpenMP compilation detected.
      Number of MPI processes > 1.
      OMP_NUM_THREADS environment variable present and
      its value matches the one obtained from the OpenMP library call.
      Using this value as default.
      Default threads: 4
      Default applies to threads_max and threads_num_fftboxes.
      Settings in the input file override this default.
   ... done

   Running with 40 MPI processes.
   There are 10 MPI processes running on the same node as the root process.
   Each MPI process is using: 
               1 threads for simulation cell FFTs.
               1 threads for parallel FFT box operations.
               4 threads for loops over batched FFT box operations.
               4 threads in other parallel regions.
... done

Basic input checks...
Resetting ngwf_cg_rotate to TRUE for EDFT calculations
... done

Reading geometry and species blocks from file "3.354_GO_manual_4x64graphite.dat" ...
    
  PSINC grid spacing along a1 set to   0.511215680000a0 from input file.
  PSINC grid spacing along a2 set to   0.531284090000a0 from input file.
  PSINC grid spacing along a3 set to   0.507052350000a0 from input file.
  Number of PPD points along a3 set to 1.  This is 
  the default value, it may have been provided also in the input file.
... done
 Writing xyz coordinates to file "3.354_GO_manual_4x64graphite.xyz" ... done


--------------------------------------------------------------------------------
---------------------------------- INPUT FILE ----------------------------------
--------------------------------------------------------------------------------

task : singlepoint                                                              
do_properties : true                                                            
dx_format T                                                                     
edft T                                                                          
output_detail VERBOSE                                                           
write_xyz T                                                                     
xc_functional OPTPBE                                                            
PSINC_SPACING 0.51121568 0.53128409 0.50705235                                  
paw T                                                                           
pdos_max_l = 2                                                                  
dos_smear  0.1 eV                                                               
popn_calculate T                                                                
PDOS_PSEUDOATOMIC T                                                             
PDOS_REDUCE_SWS F                                                               
PDOS_CONSTRUCT_BASIS F                                                          
PDOS_LOWDIN T                                                                   
PDOS_ORTH_ATOM_BLOCKS F                                                         
PDOS_LCAO_OPTIMIZE F                                                            
pdos_optados_output T                                                           
homo_plot 0                                                                     
lumo_plot 0                                                                     
homo_dens_plot -1                                                               
lumo_dens_plot -1                                                               
%BLOCK SPECIES                                                                  
C C 6 4 9.0                                                                     
%ENDBLOCK SPECIES                                                               
%BLOCK SPECIES_POT                                                              
C "~/pp/paw/c_pbe_abinit.paw"                                                   
%ENDBLOCK SPECIES_POT                                                           
%BLOCK SPECIES_ATOMIC_SET                                                       
C "SOLVE conf=2s2 2p2"                                                          
%ENDBLOCK SPECIES_ATOMIC_SET                                                    
%BLOCK LATTICE_CART                                                             
32.21  0.00  0.00                                                               
0.00 18.59  0.00                                                                
0.00  0.00 63.38                                                                
%ENDBLOCK LATTICE_CART                                                          
%BLOCK POSITIONS_ABS                                                            
C  0.00  0.00  3.17                                                             
C  0.00  0.00 15.85                                                             
C  0.00  0.00 28.52                                                             
C  0.00  0.00 41.20                                                             
C  0.00  0.00 53.87                                                             
C  0.00  4.65  3.17                                                             
C  0.00  4.65 15.85                                                             
C  0.00  4.65 28.52                                                             
C  0.00  4.65 41.20                                                             
C  0.00  4.65 53.87                                                             
C  4.03  2.32  3.17                                                             
C  4.03  2.32 15.85                                                             
C  4.03  2.32 28.52                                                             
C  4.03  2.32 41.20                                                             
C  4.03  2.32 53.87                                                             
C  8.05  0.00  3.17                                                             
C  8.05  0.00 15.85                                                             
C  8.05  0.00 28.52                                                             
C  8.05  0.00 41.20                                                             
C  8.05  0.00 53.87                                                             
C  0.00  9.30  3.17                                                             
C  0.00  9.30 15.85                                                             
C  0.00  9.30 28.52                                                             
C  0.00  9.30 41.20                                                             
C  0.00  9.30 53.87                                                             
C  4.03  6.97  3.17                                                             
C  4.03  6.97 15.85                                                             
C  4.03  6.97 28.52                                                             
C  4.03  6.97 41.20                                                             
C  4.03  6.97 53.87                                                             
C  8.05  4.65  3.17                                                             
C  8.05  4.65 15.85                                                             
C  8.05  4.65 28.52                                                             
C  8.05  4.65 41.20                                                             
C  8.05  4.65 53.87                                                             
C 12.08  2.32  3.17                                                             
C 12.08  2.32 15.85                                                             
C 12.08  2.32 28.52                                                             
C 12.08  2.32 41.20                                                             
C 12.08  2.32 53.87                                                             
C 16.10  0.00  3.17                                                             
C 16.10  0.00 15.85                                                             
C 16.10  0.00 28.52                                                             
C 16.10  0.00 41.20                                                             
C 16.10  0.00 53.87                                                             
C  0.00 13.95  3.17                                                             
C  0.00 13.95 15.85                                                             
C  0.00 13.95 28.52                                                             
C  0.00 13.95 41.20                                                             
C  0.00 13.95 53.87                                                             
C  4.03 11.62  3.17                                                             
C  4.03 11.62 15.85                                                             
C  4.03 11.62 28.52                                                             
C  4.03 11.62 41.20                                                             
C  4.03 11.62 53.87                                                             
C  8.05  9.30  3.17                                                             
C  8.05  9.30 15.85                                                             
C  8.05  9.30 28.52                                                             
C  8.05  9.30 41.20                                                             
C  8.05  9.30 53.87                                                             
C 12.08  6.97  3.17                                                             
C 12.08  6.97 15.85                                                             
C 12.08  6.97 28.52                                                             
C 12.08  6.97 41.20                                                             
C 12.08  6.97 53.87                                                             
C 16.10  4.65  3.17                                                             
C 16.10  4.65 15.85                                                             
C 16.10  4.65 28.52                                                             
C 16.10  4.65 41.20                                                             
C 16.10  4.65 53.87                                                             
C 20.13  2.32  3.17                                                             
C 20.13  2.32 15.85                                                             
C 20.13  2.32 28.52                                                             
C 20.13  2.32 41.20                                                             
C 20.13  2.32 53.87                                                             
C 24.16  0.00  3.17                                                             
C 24.16  0.00 15.85                                                             
C 24.16  0.00 28.52                                                             
C 24.16  0.00 41.20                                                             
C 24.16  0.00 53.87                                                             
C  4.03 16.27  3.17                                                             
C  4.03 16.27 15.85                                                             
C  4.03 16.27 28.52                                                             
C  4.03 16.27 41.20                                                             
C  4.03 16.27 53.87                                                             
C  8.05 13.95  3.17                                                             
C  8.05 13.95 15.85                                                             
C  8.05 13.95 28.52                                                             
C  8.05 13.95 41.20                                                             
C  8.05 13.95 53.87                                                             
C 12.08 11.62  3.17                                                             
C 12.08 11.62 15.85                                                             
C 12.08 11.62 28.52                                                             
C 12.08 11.62 41.20                                                             
C 12.08 11.62 53.87                                                             
C 16.10  9.30  3.17                                                             
C 16.10  9.30 15.85                                                             
C 16.10  9.30 28.52                                                             
C 16.10  9.30 41.20                                                             
C 16.10  9.30 53.87                                                             
C 20.13  6.97  3.17                                                             
C 20.13  6.97 15.85                                                             
C 20.13  6.97 28.52                                                             
C 20.13  6.97 41.20                                                             
C 20.13  6.97 53.87                                                             
C 24.16  4.65  3.17                                                             
C 24.16  4.65 15.85                                                             
C 24.16  4.65 28.52                                                             
C 24.16  4.65 41.20                                                             
C 24.16  4.65 53.87                                                             
C 28.18  2.32  3.17                                                             
C 28.18  2.32 15.85                                                             
C 28.18  2.32 28.52                                                             
C 28.18  2.32 41.20                                                             
C 28.18  2.32 53.87                                                             
C 12.08 16.27  3.17                                                             
C 12.08 16.27 15.85                                                             
C 12.08 16.27 28.52                                                             
C 12.08 16.27 41.20                                                             
C 12.08 16.27 53.87                                                             
C 16.10 13.95  3.17                                                             
C 16.10 13.95 15.85                                                             
C 16.10 13.95 28.52                                                             
C 16.10 13.95 41.20                                                             
C 16.10 13.95 53.87                                                             
C 20.13 11.62  3.17                                                             
C 20.13 11.62 15.85                                                             
C 20.13 11.62 28.52                                                             
C 20.13 11.62 41.20                                                             
C 20.13 11.62 53.87                                                             
C 24.16  9.30  3.17                                                             
C 24.16  9.30 15.85                                                             
C 24.16  9.30 28.52                                                             
C 24.16  9.30 41.20                                                             
C 24.16  9.30 53.87                                                             
C 28.18  6.97  3.17                                                             
C 28.18  6.97 15.85                                                             
C 28.18  6.97 28.52                                                             
C 28.18  6.97 41.20                                                             
C 28.18  6.97 53.87                                                             
C 20.13 16.27  3.17                                                             
C 20.13 16.27 15.85                                                             
C 20.13 16.27 28.52                                                             
C 20.13 16.27 41.20                                                             
C 20.13 16.27 53.87                                                             
C 24.16 13.95  3.17                                                             
C 24.16 13.95 15.85                                                             
C 24.16 13.95 28.52                                                             
C 24.16 13.95 41.20                                                             
C 24.16 13.95 53.87                                                             
C 28.18 11.62  3.17                                                             
C 28.18 11.62 15.85                                                             
C 28.18 11.62 28.52                                                             
C 28.18 11.62 41.20                                                             
C 28.18 11.62 53.87                                                             
C 28.18 16.27  3.17                                                             
C 28.18 16.27 15.85                                                             
C 28.18 16.27 28.52                                                             
C 28.18 16.27 41.20                                                             
C 28.18 16.27 53.87                                                             
C  0.00  0.00  9.51                                                             
C  0.00  0.00 22.18                                                             
C  0.00  0.00 34.86                                                             
C  0.00  0.00 47.54                                                             
C  0.00  0.00 60.21                                                             
C  0.00  4.65  9.51                                                             
C  0.00  4.65 22.18                                                             
C  0.00  4.65 34.86                                                             
C  0.00  4.65 47.54                                                             
C  0.00  4.65 60.21                                                             
C  4.03  2.32  9.51                                                             
C  4.03  2.32 22.18                                                             
C  4.03  2.32 34.86                                                             
C  4.03  2.32 47.54                                                             
C  4.03  2.32 60.21                                                             
C  8.05  0.00  9.51                                                             
C  8.05  0.00 22.18                                                             
C  8.05  0.00 34.86                                                             
C  8.05  0.00 47.54                                                             
C  8.05  0.00 60.21                                                             
C  0.00  9.30  9.51                                                             
C  0.00  9.30 22.18                                                             
C  0.00  9.30 34.86                                                             
C  0.00  9.30 47.54                                                             
C  0.00  9.30 60.21                                                             
C  4.03  6.97  9.51                                                             
C  4.03  6.97 22.18                                                             
C  4.03  6.97 34.86                                                             
C  4.03  6.97 47.54                                                             
C  4.03  6.97 60.21                                                             
C  8.05  4.65  9.51                                                             
C  8.05  4.65 22.18                                                             
C  8.05  4.65 34.86                                                             
C  8.05  4.65 47.54                                                             
C  8.05  4.65 60.21                                                             
C 12.08  2.32  9.51                                                             
C 12.08  2.32 22.18                                                             
C 12.08  2.32 34.86                                                             
C 12.08  2.32 47.54                                                             
C 12.08  2.32 60.21                                                             
C 16.10  0.00  9.51                                                             
C 16.10  0.00 22.18                                                             
C 16.10  0.00 34.86                                                             
C 16.10  0.00 47.54                                                             
C 16.10  0.00 60.21                                                             
C  0.00 13.95  9.51                                                             
C  0.00 13.95 22.18                                                             
C  0.00 13.95 34.86                                                             
C  0.00 13.95 47.54                                                             
C  0.00 13.95 60.21                                                             
C  4.03 11.62  9.51                                                             
C  4.03 11.62 22.18                                                             
C  4.03 11.62 34.86                                                             
C  4.03 11.62 47.54                                                             
C  4.03 11.62 60.21                                                             
C  8.05  9.30  9.51                                                             
C  8.05  9.30 22.18                                                             
C  8.05  9.30 34.86                                                             
C  8.05  9.30 47.54                                                             
C  8.05  9.30 60.21                                                             
C 12.08  6.97  9.51                                                             
C 12.08  6.97 22.18                                                             
C 12.08  6.97 34.86                                                             
C 12.08  6.97 47.54                                                             
C 12.08  6.97 60.21                                                             
C 16.10  4.65  9.51                                                             
C 16.10  4.65 22.18                                                             
C 16.10  4.65 34.86                                                             
C 16.10  4.65 47.54                                                             
C 16.10  4.65 60.21                                                             
C 20.13  2.32  9.51                                                             
C 20.13  2.32 22.18                                                             
C 20.13  2.32 34.86                                                             
C 20.13  2.32 47.54                                                             
C 20.13  2.32 60.21                                                             
C 24.16  0.00  9.51                                                             
C 24.16  0.00 22.18                                                             
C 24.16  0.00 34.86                                                             
C 24.16  0.00 47.54                                                             
C 24.16  0.00 60.21                                                             
C  4.03 16.27  9.51                                                             
C  4.03 16.27 22.18                                                             
C  4.03 16.27 34.86                                                             
C  4.03 16.27 47.54                                                             
C  4.03 16.27 60.21                                                             
C  8.05 13.95  9.51                                                             
C  8.05 13.95 22.18                                                             
C  8.05 13.95 34.86                                                             
C  8.05 13.95 47.54                                                             
C  8.05 13.95 60.21                                                             
C 12.08 11.62  9.51                                                             
C 12.08 11.62 22.18                                                             
C 12.08 11.62 34.86                                                             
C 12.08 11.62 47.54                                                             
C 12.08 11.62 60.21                                                             
C 16.10  9.30  9.51                                                             
C 16.10  9.30 22.18                                                             
C 16.10  9.30 34.86                                                             
C 16.10  9.30 47.54                                                             
C 16.10  9.30 60.21                                                             
C 20.13  6.97  9.51                                                             
C 20.13  6.97 22.18                                                             
C 20.13  6.97 34.86                                                             
C 20.13  6.97 47.54                                                             
C 20.13  6.97 60.21                                                             
C 24.16  4.65  9.51                                                             
C 24.16  4.65 22.18                                                             
C 24.16  4.65 34.86                                                             
C 24.16  4.65 47.54                                                             
C 24.16  4.65 60.21                                                             
C 28.18  2.32  9.51                                                             
C 28.18  2.32 22.18                                                             
C 28.18  2.32 34.86                                                             
C 28.18  2.32 47.54                                                             
C 28.18  2.32 60.21                                                             
C 12.08 16.27  9.51                                                             
C 12.08 16.27 22.18                                                             
C 12.08 16.27 34.86                                                             
C 12.08 16.27 47.54                                                             
C 12.08 16.27 60.21                                                             
C 16.10 13.95  9.51                                                             
C 16.10 13.95 22.18                                                             
C 16.10 13.95 34.86                                                             
C 16.10 13.95 47.54                                                             
C 16.10 13.95 60.21                                                             
C 20.13 11.62  9.51                                                             
C 20.13 11.62 22.18                                                             
C 20.13 11.62 34.86                                                             
C 20.13 11.62 47.54                                                             
C 20.13 11.62 60.21                                                             
C 24.16  9.30  9.51                                                             
C 24.16  9.30 22.18                                                             
C 24.16  9.30 34.86                                                             
C 24.16  9.30 47.54                                                             
C 24.16  9.30 60.21                                                             
C 28.18  6.97  9.51                                                             
C 28.18  6.97 22.18                                                             
C 28.18  6.97 34.86                                                             
C 28.18  6.97 47.54                                                             
C 28.18  6.97 60.21                                                             
C 20.13 16.27  9.51                                                             
C 20.13 16.27 22.18                                                             
C 20.13 16.27 34.86                                                             
C 20.13 16.27 47.54                                                             
C 20.13 16.27 60.21                                                             
C 24.16 13.95  9.51                                                             
C 24.16 13.95 22.18                                                             
C 24.16 13.95 34.86                                                             
C 24.16 13.95 47.54                                                             
C 24.16 13.95 60.21                                                             
C 28.18 11.62  9.51                                                             
C 28.18 11.62 22.18                                                             
C 28.18 11.62 34.86                                                             
C 28.18 11.62 47.54                                                             
C 28.18 11.62 60.21                                                             
C 28.18 16.27  9.51                                                             
C 28.18 16.27 22.18                                                             
C 28.18 16.27 34.86                                                             
C 28.18 16.27 47.54                                                             
C 28.18 16.27 60.21                                                             
C  1.34  2.32  3.17                                                             
C  1.34  2.32 15.85                                                             
C  1.34  2.32 28.52                                                             
C  1.34  2.32 41.20                                                             
C  1.34  2.32 53.87                                                             
C  5.37  0.00  3.17                                                             
C  5.37  0.00 15.85                                                             
C  5.37  0.00 28.52                                                             
C  5.37  0.00 41.20                                                             
C  5.37  0.00 53.87                                                             
C  1.34  6.97  3.17                                                             
C  1.34  6.97 15.85                                                             
C  1.34  6.97 28.52                                                             
C  1.34  6.97 41.20                                                             
C  1.34  6.97 53.87                                                             
C  5.37  4.65  3.17                                                             
C  5.37  4.65 15.85                                                             
C  5.37  4.65 28.52                                                             
C  5.37  4.65 41.20                                                             
C  5.37  4.65 53.87                                                             
C  9.39  2.32  3.17                                                             
C  9.39  2.32 15.85                                                             
C  9.39  2.32 28.52                                                             
C  9.39  2.32 41.20                                                             
C  9.39  2.32 53.87                                                             
C 13.42  0.00  3.17                                                             
C 13.42  0.00 15.85                                                             
C 13.42  0.00 28.52                                                             
C 13.42  0.00 41.20                                                             
C 13.42  0.00 53.87                                                             
C  1.34 11.62  3.17                                                             
C  1.34 11.62 15.85                                                             
C  1.34 11.62 28.52                                                             
C  1.34 11.62 41.20                                                             
C  1.34 11.62 53.87                                                             
C  5.37  9.30  3.17                                                             
C  5.37  9.30 15.85                                                             
C  5.37  9.30 28.52                                                             
C  5.37  9.30 41.20                                                             
C  5.37  9.30 53.87                                                             
C  9.39  6.97  3.17                                                             
C  9.39  6.97 15.85                                                             
C  9.39  6.97 28.52                                                             
C  9.39  6.97 41.20                                                             
C  9.39  6.97 53.87                                                             
C 13.42  4.65  3.17                                                             
C 13.42  4.65 15.85                                                             
C 13.42  4.65 28.52                                                             
C 13.42  4.65 41.20                                                             
C 13.42  4.65 53.87                                                             
C 17.45  2.32  3.17                                                             
C 17.45  2.32 15.85                                                             
C 17.45  2.32 28.52                                                             
C 17.45  2.32 41.20                                                             
C 17.45  2.32 53.87                                                             
C 21.47  0.00  3.17                                                             
C 21.47  0.00 15.85                                                             
C 21.47  0.00 28.52                                                             
C 21.47  0.00 41.20                                                             
C 21.47  0.00 53.87                                                             
C  1.34 16.27  3.17                                                             
C  1.34 16.27 15.85                                                             
C  1.34 16.27 28.52                                                             
C  1.34 16.27 41.20                                                             
C  1.34 16.27 53.87                                                             
C  5.37 13.95  3.17                                                             
C  5.37 13.95 15.85                                                             
C  5.37 13.95 28.52                                                             
C  5.37 13.95 41.20                                                             
C  5.37 13.95 53.87                                                             
C  9.39 11.62  3.17                                                             
C  9.39 11.62 15.85                                                             
C  9.39 11.62 28.52                                                             
C  9.39 11.62 41.20                                                             
C  9.39 11.62 53.87                                                             
C 13.42  9.30  3.17                                                             
C 13.42  9.30 15.85                                                             
C 13.42  9.30 28.52                                                             
C 13.42  9.30 41.20                                                             
C 13.42  9.30 53.87                                                             
C 17.45  6.97  3.17                                                             
C 17.45  6.97 15.85                                                             
C 17.45  6.97 28.52                                                             
C 17.45  6.97 41.20                                                             
C 17.45  6.97 53.87                                                             
C 21.47  4.65  3.17                                                             
C 21.47  4.65 15.85                                                             
C 21.47  4.65 28.52                                                             
C 21.47  4.65 41.20                                                             
C 21.47  4.65 53.87                                                             
C 25.50  2.32  3.17                                                             
C 25.50  2.32 15.85                                                             
C 25.50  2.32 28.52                                                             
C 25.50  2.32 41.20                                                             
C 25.50  2.32 53.87                                                             
C 29.52  0.00  3.17                                                             
C 29.52  0.00 15.85                                                             
C 29.52  0.00 28.52                                                             
C 29.52  0.00 41.20                                                             
C 29.52  0.00 53.87                                                             
C  9.39 16.27  3.17                                                             
C  9.39 16.27 15.85                                                             
C  9.39 16.27 28.52                                                             
C  9.39 16.27 41.20                                                             
C  9.39 16.27 53.87                                                             
C 13.42 13.95  3.17                                                             
C 13.42 13.95 15.85                                                             
C 13.42 13.95 28.52                                                             
C 13.42 13.95 41.20                                                             
C 13.42 13.95 53.87                                                             
C 17.45 11.62  3.17                                                             
C 17.45 11.62 15.85                                                             
C 17.45 11.62 28.52                                                             
C 17.45 11.62 41.20                                                             
C 17.45 11.62 53.87                                                             
C 21.47  9.30  3.17                                                             
C 21.47  9.30 15.85                                                             
C 21.47  9.30 28.52                                                             
C 21.47  9.30 41.20                                                             
C 21.47  9.30 53.87                                                             
C 25.50  6.97  3.17                                                             
C 25.50  6.97 15.85                                                             
C 25.50  6.97 28.52                                                             
C 25.50  6.97 41.20                                                             
C 25.50  6.97 53.87                                                             
C 29.52  4.65  3.17                                                             
C 29.52  4.65 15.85                                                             
C 29.52  4.65 28.52                                                             
C 29.52  4.65 41.20                                                             
C 29.52  4.65 53.87                                                             
C 17.45 16.27  3.17                                                             
C 17.45 16.27 15.85                                                             
C 17.45 16.27 28.52                                                             
C 17.45 16.27 41.20                                                             
C 17.45 16.27 53.87                                                             
C 21.47 13.95  3.17                                                             
C 21.47 13.95 15.85                                                             
C 21.47 13.95 28.52                                                             
C 21.47 13.95 41.20                                                             
C 21.47 13.95 53.87                                                             
C 25.50 11.62  3.17                                                             
C 25.50 11.62 15.85                                                             
C 25.50 11.62 28.52                                                             
C 25.50 11.62 41.20                                                             
C 25.50 11.62 53.87                                                             
C 29.52  9.30  3.17                                                             
C 29.52  9.30 15.85                                                             
C 29.52  9.30 28.52                                                             
C 29.52  9.30 41.20                                                             
C 29.52  9.30 53.87                                                             
C 25.50 16.27  3.17                                                             
C 25.50 16.27 15.85                                                             
C 25.50 16.27 28.52                                                             
C 25.50 16.27 41.20                                                             
C 25.50 16.27 53.87                                                             
C 29.52 13.95  3.17                                                             
C 29.52 13.95 15.85                                                             
C 29.52 13.95 28.52                                                             
C 29.52 13.95 41.20                                                             
C 29.52 13.95 53.87                                                             
C  2.68  0.00  9.51                                                             
C  2.68  0.00 22.18                                                             
C  2.68  0.00 34.86                                                             
C  2.68  0.00 47.54                                                             
C  2.68  0.00 60.21                                                             
C  2.68  4.65  9.51                                                             
C  2.68  4.65 22.18                                                             
C  2.68  4.65 34.86                                                             
C  2.68  4.65 47.54                                                             
C  2.68  4.65 60.21                                                             
C  6.71  2.32  9.51                                                             
C  6.71  2.32 22.18                                                             
C  6.71  2.32 34.86                                                             
C  6.71  2.32 47.54                                                             
C  6.71  2.32 60.21                                                             
C 10.74  0.00  9.51                                                             
C 10.74  0.00 22.18                                                             
C 10.74  0.00 34.86                                                             
C 10.74  0.00 47.54                                                             
C 10.74  0.00 60.21                                                             
C  2.68  9.30  9.51                                                             
C  2.68  9.30 22.18                                                             
C  2.68  9.30 34.86                                                             
C  2.68  9.30 47.54                                                             
C  2.68  9.30 60.21                                                             
C  6.71  6.97  9.51                                                             
C  6.71  6.97 22.18                                                             
C  6.71  6.97 34.86                                                             
C  6.71  6.97 47.54                                                             
C  6.71  6.97 60.21                                                             
C 10.74  4.65  9.51                                                             
C 10.74  4.65 22.18                                                             
C 10.74  4.65 34.86                                                             
C 10.74  4.65 47.54                                                             
C 10.74  4.65 60.21                                                             
C 14.76  2.32  9.51                                                             
C 14.76  2.32 22.18                                                             
C 14.76  2.32 34.86                                                             
C 14.76  2.32 47.54                                                             
C 14.76  2.32 60.21                                                             
C 18.79  0.00  9.51                                                             
C 18.79  0.00 22.18                                                             
C 18.79  0.00 34.86                                                             
C 18.79  0.00 47.54                                                             
C 18.79  0.00 60.21                                                             
C  2.68 13.95  9.51                                                             
C  2.68 13.95 22.18                                                             
C  2.68 13.95 34.86                                                             
C  2.68 13.95 47.54                                                             
C  2.68 13.95 60.21                                                             
C  6.71 11.62  9.51                                                             
C  6.71 11.62 22.18                                                             
C  6.71 11.62 34.86                                                             
C  6.71 11.62 47.54                                                             
C  6.71 11.62 60.21                                                             
C 10.74  9.30  9.51                                                             
C 10.74  9.30 22.18                                                             
C 10.74  9.30 34.86                                                             
C 10.74  9.30 47.54                                                             
C 10.74  9.30 60.21                                                             
C 14.76  6.97  9.51                                                             
C 14.76  6.97 22.18                                                             
C 14.76  6.97 34.86                                                             
C 14.76  6.97 47.54                                                             
C 14.76  6.97 60.21                                                             
C 18.79  4.65  9.51                                                             
C 18.79  4.65 22.18                                                             
C 18.79  4.65 34.86                                                             
C 18.79  4.65 47.54                                                             
C 18.79  4.65 60.21                                                             
C 22.81  2.32  9.51                                                             
C 22.81  2.32 22.18                                                             
C 22.81  2.32 34.86                                                             
C 22.81  2.32 47.54                                                             
C 22.81  2.32 60.21                                                             
C 26.84  0.00  9.51                                                             
C 26.84  0.00 22.18                                                             
C 26.84  0.00 34.86                                                             
C 26.84  0.00 47.54                                                             
C 26.84  0.00 60.21                                                             
C  6.71 16.27  9.51                                                             
C  6.71 16.27 22.18                                                             
C  6.71 16.27 34.86                                                             
C  6.71 16.27 47.54                                                             
C  6.71 16.27 60.21                                                             
C 10.74 13.95  9.51                                                             
C 10.74 13.95 22.18                                                             
C 10.74 13.95 34.86                                                             
C 10.74 13.95 47.54                                                             
C 10.74 13.95 60.21                                                             
C 14.76 11.62  9.51                                                             
C 14.76 11.62 22.18                                                             
C 14.76 11.62 34.86                                                             
C 14.76 11.62 47.54                                                             
C 14.76 11.62 60.21                                                             
C 18.79  9.30  9.51                                                             
C 18.79  9.30 22.18                                                             
C 18.79  9.30 34.86                                                             
C 18.79  9.30 47.54                                                             
C 18.79  9.30 60.21                                                             
C 22.81  6.97  9.51                                                             
C 22.81  6.97 22.18                                                             
C 22.81  6.97 34.86                                                             
C 22.81  6.97 47.54                                                             
C 22.81  6.97 60.21                                                             
C 26.84  4.65  9.51                                                             
C 26.84  4.65 22.18                                                             
C 26.84  4.65 34.86                                                             
C 26.84  4.65 47.54                                                             
C 26.84  4.65 60.21                                                             
C 30.86  2.32  9.51                                                             
C 30.86  2.32 22.18                                                             
C 30.86  2.32 34.86                                                             
C 30.86  2.32 47.54                                                             
C 30.86  2.32 60.21                                                             
C 14.76 16.27  9.51                                                             
C 14.76 16.27 22.18                                                             
C 14.76 16.27 34.86                                                             
C 14.76 16.27 47.54                                                             
C 14.76 16.27 60.21                                                             
C 18.79 13.95  9.51                                                             
C 18.79 13.95 22.18                                                             
C 18.79 13.95 34.86                                                             
C 18.79 13.95 47.54                                                             
C 18.79 13.95 60.21                                                             
C 22.81 11.62  9.51                                                             
C 22.81 11.62 22.18                                                             
C 22.81 11.62 34.86                                                             
C 22.81 11.62 47.54                                                             
C 22.81 11.62 60.21                                                             
C 26.84  9.30  9.51                                                             
C 26.84  9.30 22.18                                                             
C 26.84  9.30 34.86                                                             
C 26.84  9.30 47.54                                                             
C 26.84  9.30 60.21                                                             
C 30.86  6.97  9.51                                                             
C 30.86  6.97 22.18                                                             
C 30.86  6.97 34.86                                                             
C 30.86  6.97 47.54                                                             
C 30.86  6.97 60.21                                                             
C 22.81 16.27  9.51                                                             
C 22.81 16.27 22.18                                                             
C 22.81 16.27 34.86                                                             
C 22.81 16.27 47.54                                                             
C 22.81 16.27 60.21                                                             
C 26.84 13.95  9.51                                                             
C 26.84 13.95 22.18                                                             
C 26.84 13.95 34.86                                                             
C 26.84 13.95 47.54                                                             
C 26.84 13.95 60.21                                                             
C 30.86 11.62  9.51                                                             
C 30.86 11.62 22.18                                                             
C 30.86 11.62 34.86                                                             
C 30.86 11.62 47.54                                                             
C 30.86 11.62 60.21                                                             
C 30.86 16.27  9.51                                                             
C 30.86 16.27 22.18                                                             
C 30.86 16.27 34.86                                                             
C 30.86 16.27 47.54                                                             
C 30.86 16.27 60.21                                                             
%ENDBLOCK POSITIONS_ABS                                                         

--------------------------------------------------------------------------------
-------------------------------- END INPUT FILE --------------------------------
--------------------------------------------------------------------------------


 
<<<<<<<<<<<<<<<<<<<<<<<<<<<<<<<<< Full system >>>>>>>>>>>>>>>>>>>>>>>>>>>>>>>>>>
<<<<<<<<<<<<<<<<<<<<<<<<<<< PAW Dataset information >>>>>>>>>>>>>>>>>>>>>>>>>>>
File: ~/pp/paw/c_pbe_abinit.paw; rc = 1.25 bohr; shape type =  3; rshape = 1.25 bohr;
  Atomic number:  6;  ionic charge:  4.000000
    Partial Wave 1: l = 0
    Partial Wave 2: l = 0
    Partial Wave 3: l = 1
    Partial Wave 4: l = 1
  Core charge supplied for Nonlinear Core Corrections
<<<<<<<<<<<<<<<<<<<<<<<<<<<<<<<<<<<<<<< >>>>>>>>>>>>>>>>>>>>>>>>>>>>>>>>>>>>>>>

-------------------------- Atom counting information ---------------------------
Symbol    Natoms    Nngwfs    Nprojs
  C        640      2560      5120
.......   ......    ......    ......
Totals:    640      2560      5120
--------------------------------------------------------------------------------

=============================== PSINC grid sizes ===============================
                      Simulation cell:   63 x  35 x 125
                              FFT-box:   63 x  35 x 117
                                  PPD:    7 x   5 x   1
Grid space d1=  0.511269841270a0 (KE cutoff=  29.06054Eh = 790.77748eV)
Grid space d2=  0.531142857143a0 (KE cutoff=  26.92659Eh = 732.70972eV)
Grid space d3=  0.507040000000a0 (KE cutoff=  29.54742Eh = 804.02620eV)
================================================================================
  
WARNING in cell_grid_distribute:
Average of less than one 23-slab per node, so workload cannot be
equally balanced between nodes.

********************* Fourier parallelisation information **********************
       Coarse grid (whole simulation cell) dimensions:     63    35   125
          Real-space ('12') slabs/node (min max mean):      3     4     3
         Recip-space ('23') slabs/node (min max mean):      0     1     0
********************************************************************************

********************* Fourier parallelisation information **********************
       Double grid (whole simulation cell) dimensions:    126    70   250
          Real-space ('12') slabs/node (min max mean):      6     7     6
         Recip-space ('23') slabs/node (min max mean):      1     2     1
********************************************************************************

Atom SCF Calculation for C  : Z (AE atom) =   6 : Z (PS atom) =   4
Config String: 2s2 2p2
Orbitals (num,occ):  2     2.00 2.00
Orbitals   (num,l):  2        0    1
Real-space Grid (nr,dr,rmax): 1293    0.0069659443    9.0000000000
Spherical Bessel Basis (nsws,lmax,cutoff):   37    2  161.4736382572
Confining potential (l,width,scale):  0    3.0000000000  100.0000000000
Confining potential (l,width,scale):  1    3.0000000000  100.0000000000
  1         -5.4795203654   -1.3252209296    4.5135257941   -1.6370402169
  2         -5.4480859746   -1.4027979239    4.4305951748   -1.6109819005
  3         -5.4553164790   -1.4212834043    4.4102618304   -1.6059039466
  4         -5.4627841133   -1.4247091338    4.4065122085   -1.6052907585
  5         -5.4662306655   -1.4266814823    4.4043715292   -1.6049352647
  6         -5.4679520247   -1.4277352742    4.4032348712   -1.6047493439
  7         -5.4688359568   -1.4282868030    4.4026432892   -1.6046541449
  8         -5.4692951245   -1.4285734530    4.4023374832   -1.6046056242
  9         -5.4695349887   -1.4287220785    4.4021797781   -1.6045809101
 10         -5.4696606791   -1.4287991022    4.4020984905   -1.6045683155
 11         -5.4697266650   -1.4288390363    4.4020565747   -1.6045618912
 12         -5.4697613504   -1.4288597596    4.4020349416   -1.6045586107
 13         -5.4697795998   -1.4288705262    4.4020237638   -1.6045569335
 14         -5.4697892089   -1.4288761271    4.4020179806   -1.6045560749
 15         -5.4697942720   -1.4288790448    4.4020149844   -1.6045556348
 16         -5.4697969415   -1.4288805668    4.4020134298   -1.6045554088
 17         -5.4697983498   -1.4288813619    4.4020126220   -1.6045552927
 18         -5.4697990933   -1.4288817779    4.4020122017   -1.6045552329
 19         -5.4697994860   -1.4288819957    4.4020119826   -1.6045552021
 20         -5.4697996936   -1.4288821100    4.4020118683   -1.6045551862
 21         -5.4697998034   -1.4288821701    4.4020118085   -1.6045551780
 22         -5.4697998614   -1.4288822017    4.4020117772   -1.6045551737
Atom SCF converged after  22 iterations to a total energy of     -5.46979986

Determining parallel strategy ...
... using space-filling curve
... NGWF load balancing: max     64;  min     64;  average     64
... Projector load balancing: max    128;  min    128;  average    128
... done
Calculating Ewald energy ...
              Ewald: real-space energy =    9501.581636
        Ewald: reciprocal-space energy =       0.085170
         Ewald: (sum_charge)**2 Energy =   11314.859368
         Ewald: (sum_charge**2) Energy =     894.518175
                          Ewald Energy =   -2707.710737
Basis initialisation ...... NGWF spheres initialised
... Projector spheres initialised
... NGWF tight boxes initialised
... Projector tight boxes initialised
... Tight-boxes gathered
... NGWF basis size (local,global):     694420  27887648
... PAW projector initialisation
... done

============================= Charge Augmentation ==============================
                           Aug box size:   11 x  11 x  11
================================================================================

========================== Sparse matrix information ===========================
                        Overlap matrix filling:  44.38%
                        Density kernel filling: 100.00%
              NGWF-Proj overlap matrix filling:  12.98%
                    Aug Overlap matrix filling:  47.69%
                    Hamiltonian matrix filling:  47.69%
                  NGWF diagonal matrix filling:   0.16%
                             KS matrix filling: 100.00% 
                           KSKS matrix filling: 100.00% 
================================================================================

Sparse matrix initialisation ... done
NGWF initialisation ...... done
============ Calculation of NGWF S^-1 using Hotelling algorithm ================ 
         Iteration  |  Frobenius norm and Maximum abs value    (of I-S*S_n^-1)   
               1       0.49151766E+02     0.97715205E+00
               2       0.47986756E+02     0.95612710E+00
               3       0.46220687E+02     0.91857264E+00
               4       0.43904282E+02     0.85667934E+00
               5       0.41110505E+02     0.76455741E+00
               6       0.37821085E+02     0.68567649E+00
               7       0.34321639E+02     0.63643317E+00
               8       0.30972173E+02     0.59530175E+00
               9       0.27475348E+02     0.55262043E+00
              10       0.23116054E+02     0.48747379E+00
              11       0.17411949E+02     0.38284334E+00
              12       0.10679315E+02     0.24094049E+00
              13       0.45624768E+01     0.10115514E+00
              14       0.99593115E+00     0.20306889E-01
              15       0.57104013E-01     0.10048615E-02
              16       0.24222757E-03     0.31997671E-05
              17       0.65954763E-08     0.52936655E-10
              18       0.82083310E-13     0.52180482E-14
================================================================================
Calculating core density ...
================================= Core Density =================================
               Core den box size:   21 x  21 x  21
================================================================================
 ... done
Up spin density kernel initialisation ...... done

Writing density kernel to file "3.354_GO_manual_4x64graphite.dkn" ... done

>>> Optimising kernel for current NGWFs:

--------------------------- Ensemble-DFT optimisation --------------------------
Running ScaLAPACK on   40 processor(s).

--------------------------------------------------------------------------------
  Iter                              Commutator    Free_energy(A=E-TS)     DeltaA
#    0                          0.000038615878   -3651.03865113590791  -3.65E+03

Step                       =       0.381966011250
Energy                     =   -3651.038618191906
Entropy (-TS)              =      -0.000032943777
Free energy (A=E-TS)       =   -3651.038651135908
Est. 0K Energy 0.5*(E+A)   =   -3651.038634663907
Residual Non-orthogonality =       0.000000000000
Residual N_electrons       =      -0.000000000225

Spin          Integrated_Ne            Fermi_level     Delta_Fermi_level
   1      2560.000000001059         0.212809279864              2.13E-01

                           Spin 1          
     Orb      H-eigenvalues     Occupancies
       1 |    -0.5116813689    1.0000000000 | 
                          ------
    1276 |     0.1790930999    0.9999762220 | 
    1277 |     0.1797021140    0.9999711801 | 
    1278 |     0.1797162410    0.9999710513 | 
    1279 |     0.1801778865    0.9999665083 | 
    1280 |     0.1807944729    0.9999593096 | 
                 - Gap at zero temperature -
    1281 |     0.2474330418    0.0000178530 | 
    1282 |     0.2474456668    0.0000177820 | 
    1283 |     0.2475192597    0.0000173735 | 
    1284 |     0.2476600402    0.0000166181 | 
    1285 |     0.2476726151    0.0000165523 | 
                          ------
    2560 |     1.0470441133    0.0000000000 | 

                       |  Abs_value |  Threshold | Converged
     Delta_Free_energy |   3.65E+03 |   1.00E-06 |        No
     Delta_Energy      |   3.65E+03 |   1.00E-04 |        No
     Delta_Entropy     |   3.29E-05 |   1.00E-04 |       Yes
     Commutator        |   3.86E-05 |   1.00E-05 |        No
     Delta_Fermi_level |   2.13E-01 |   1.00E-03 |        No

  Line search of the free energy minimum:
  Step_type        Step             Free_energy   Predicted_free_energy
.   Initial    0.000000    -3651.03865113590791
.    Trial1    0.381966    -3651.04017351146376
.    Trial2    0.618034    -3651.04016167523287
. Quadratic    0.496161    -3651.04025821391724    -3651.04025866588245

--------------------------------------------------------------------------------
  Iter                              Commutator    Free_energy(A=E-TS)     DeltaA
#    1                          0.000020669002   -3651.04025821391724  -1.61E-03

Step                       =       0.496160874557
Energy                     =   -3651.040226012179
Entropy (-TS)              =      -0.000032202088
Free energy (A=E-TS)       =   -3651.040258213917
Est. 0K Energy 0.5*(E+A)   =   -3651.040242113048
Residual Non-orthogonality =       0.000000000000
Residual N_electrons       =       0.000000000350

Spin          Integrated_Ne            Fermi_level     Delta_Fermi_level
   1      2559.999999998365         0.214302926152              1.49E-03

                           Spin 1          
     Orb      H-eigenvalues     Occupancies
       1 |    -0.5112439844    1.0000000000 | 
                          ------
    1276 |     0.1805893766    0.9999762023 | 
    1277 |     0.1810592548    0.9999723960 | 
    1278 |     0.1810784272    0.9999722284 | 
    1279 |     0.1816883634    0.9999663298 | 
    1280 |     0.1821709066    0.9999607880 | 
                 - Gap at zero temperature -
    1281 |     0.2489575335    0.0000176800 | 
    1282 |     0.2490035575    0.0000174249 | 
    1283 |     0.2490671969    0.0000170782 | 
    1284 |     0.2492143687    0.0000163027 | 
    1285 |     0.2492329422    0.0000162074 | 
                          ------
    2560 |     1.0494902474    0.0000000000 | 

                       |  Abs_value |  Threshold | Converged
     Delta_Free_energy |   1.61E-03 |   1.00E-06 |        No
     Delta_Energy      |   1.61E-03 |   1.00E-04 |        No
     Delta_Entropy     |   7.42E-07 |   1.00E-04 |       Yes
     Commutator        |   2.07E-05 |   1.00E-05 |        No
     Delta_Fermi_level |   1.49E-03 |   1.00E-03 |        No

  Line search of the free energy minimum:
  Step_type        Step             Free_energy   Predicted_free_energy
.   Initial    0.000000    -3651.04025821391724
.    Trial1    0.496161    -3651.04040375628347
.    Trial2    0.688610    -3651.03983599593266
. Quadratic    0.279219    -3651.04062622667425    -3651.04062543837745

--------------------------------------------------------------------------------
  Iter                              Commutator    Free_energy(A=E-TS)     DeltaA
#    2                          0.000012842089   -3651.04062622667425  -3.68E-04

Step                       =       0.279218694746
Energy                     =   -3651.040594294328
Entropy (-TS)              =      -0.000031931915
Free energy (A=E-TS)       =   -3651.040626226674
Est. 0K Energy 0.5*(E+A)   =   -3651.040610260501
Residual Non-orthogonality =       0.000000000000
Residual N_electrons       =      -0.000000000432

Spin          Integrated_Ne            Fermi_level     Delta_Fermi_level
   1      2560.000000002011         0.214703194942              4.00E-04

                           Spin 1          
     Orb      H-eigenvalues     Occupancies
       1 |    -0.5111252608    1.0000000000 | 
                          ------
    1276 |     0.1809412854    0.9999765629 | 
    1277 |     0.1814476463    0.9999724993 | 
    1278 |     0.1814687464    0.9999723155 | 
    1279 |     0.1820367486    0.9999668770 | 
    1280 |     0.1825575931    0.9999609559 | 
                 - Gap at zero temperature -
    1281 |     0.2493939747    0.0000174792 | 
    1282 |     0.2494417834    0.0000172173 | 
    1283 |     0.2495023742    0.0000168910 | 
    1284 |     0.2496592462    0.0000160747 | 
    1285 |     0.2496787884    0.0000159758 | 
                          ------
    2560 |     1.0501648821    0.0000000000 | 

                       |  Abs_value |  Threshold | Converged
     Delta_Free_energy |   3.68E-04 |   1.00E-06 |        No
     Delta_Energy      |   3.68E-04 |   1.00E-04 |        No
     Delta_Entropy     |   2.70E-07 |   1.00E-04 |       Yes
     Commutator        |   1.28E-05 |   1.00E-05 |        No
     Delta_Fermi_level |   4.00E-04 |   1.00E-03 |       Yes

  Line search of the free energy minimum:
  Step_type        Step             Free_energy   Predicted_free_energy
.   Initial    0.000000    -3651.04062622667425
.    Trial1    0.279219    -3651.04076198349230
.    Trial2    0.554533    -3651.04068650441923
. Quadratic    0.316904    -3651.04076391320314    -3651.04076393080686

--------------------------------------------------------------------------------
  Iter                              Commutator    Free_energy(A=E-TS)     DeltaA
#    3                          0.000009017398   -3651.04076391320314  -1.38E-04

Step                       =       0.316904024094
Energy                     =   -3651.040732192296
Entropy (-TS)              =      -0.000031721127
Free energy (A=E-TS)       =   -3651.040763913203
Est. 0K Energy 0.5*(E+A)   =   -3651.040748052749
Residual Non-orthogonality =       0.000000000000
Residual N_electrons       =       0.000000000219

Spin          Integrated_Ne            Fermi_level     Delta_Fermi_level
   1      2559.999999998984         0.215032132894              3.29E-04

                           Spin 1          
     Orb      H-eigenvalues     Occupancies
       1 |    -0.5110216483    1.0000000000 | 
                          ------
    1276 |     0.1812434827    0.9999767600 | 
    1277 |     0.1817582360    0.9999726582 | 
    1278 |     0.1817801154    0.9999724686 | 
    1279 |     0.1823383616    0.9999671615 | 
    1280 |     0.1828683512    0.9999611793 | 
                 - Gap at zero temperature -
    1281 |     0.2497461291    0.0000173515 | 
    1282 |     0.2497945879    0.0000170880 | 
    1283 |     0.2498545575    0.0000167675 | 
    1284 |     0.2500133260    0.0000159476 | 
    1285 |     0.2500332143    0.0000158477 | 
                          ------
    2560 |     1.0507296650    0.0000000000 | 

                       |  Abs_value |  Threshold | Converged
     Delta_Free_energy |   1.38E-04 |   1.00E-06 |        No
     Delta_Energy      |   1.38E-04 |   1.00E-04 |        No
     Delta_Entropy     |   2.11E-07 |   1.00E-04 |       Yes
     Commutator        |   9.02E-06 |   1.00E-05 |       Yes
     Delta_Fermi_level |   3.29E-04 |   1.00E-03 |       Yes

  Line search of the free energy minimum:
  Step_type        Step             Free_energy   Predicted_free_energy
.   Initial    0.000000    -3651.04076391320314
.    Trial1    0.316904    -3651.04082632079871
.    Trial2    0.577823    -3651.04074670614136
. Quadratic    0.271775    -3651.04082810022146    -3651.04082809036618

--------------------------------------------------------------------------------
  Iter                              Commutator    Free_energy(A=E-TS)     DeltaA
#    4                          0.000006279809   -3651.04082810022146  -6.42E-05

Step                       =       0.271775281453
Energy                     =   -3651.040796498401
Entropy (-TS)              =      -0.000031601567
[...]
 C   141 -- C   471       -0.10      5.37000
 C   275 -- C   555       -0.10      5.37000
 C   274 -- C   554       -0.10      5.37000
 C   273 -- C   553       -0.10      5.37000
 C   272 -- C   552       -0.10      5.37000
 C   271 -- C   551       -0.10      5.37000
 C   270 -- C   550       -0.10      5.37000
 C   269 -- C   549       -0.10      5.37000
 C   268 -- C   548       -0.10      5.37000
 C   267 -- C   547       -0.10      5.37000
 C   266 -- C   546       -0.10      5.37000
 C   130 -- C   465       -0.10      5.37000
 C   129 -- C   464       -0.10      5.37000
 C   128 -- C   463       -0.10      5.37000
 C   127 -- C   462       -0.10      5.37000
 C   126 -- C   461       -0.10      5.37000
 C   240 -- C   525       -0.10      5.37000
 C   239 -- C   524       -0.10      5.37000
 C   238 -- C   523       -0.10      5.37000
 C   237 -- C   522       -0.10      5.37000
 C   236 -- C   521       -0.10      5.37000
 C    23 -- C   478       -0.10      5.37202
 C    49 -- C   469       -0.10      5.37202
 C    48 -- C   468       -0.10      5.37202
 C    47 -- C   467       -0.10      5.37202
 C    22 -- C   477       -0.10      5.37202
 C    46 -- C   466       -0.10      5.37202
 C    21 -- C   476       -0.10      5.37202
 C    25 -- C   480       -0.10      5.37202
 C    24 -- C   479       -0.10      5.37202
 C    50 -- C   470       -0.10      5.37202
 C    24 -- C   449       -0.10      5.37202
 C     6 -- C   416       -0.10      5.37202
 C    23 -- C   448       -0.10      5.37202
 C    22 -- C   447       -0.10      5.37202
 C    10 -- C   470       -0.10      5.37202
 C     5 -- C   450       -0.10      5.37202
 C    21 -- C   446       -0.10      5.37202
 C    10 -- C   420       -0.10      5.37202
 C     9 -- C   469       -0.10      5.37202
 C     9 -- C   419       -0.10      5.37202
 C     8 -- C   468       -0.10      5.37202
 C     4 -- C   449       -0.10      5.37202
 C     8 -- C   418       -0.10      5.37202
 C     2 -- C   447       -0.10      5.37202
 C     7 -- C   467       -0.10      5.37202
 C     7 -- C   417       -0.10      5.37202
 C     1 -- C   446       -0.10      5.37202
 C     6 -- C   466       -0.10      5.37202
 C    25 -- C   450       -0.10      5.37202
 C     3 -- C   448       -0.10      5.37202
 C   285 -- C   580       -0.10      5.37202
 C   284 -- C   579       -0.10      5.37202
 C   283 -- C   578       -0.10      5.37202
 C   282 -- C   577       -0.10      5.37202
 C   281 -- C   576       -0.10      5.37202
 C   260 -- C   605       -0.10      5.37202
 C   259 -- C   604       -0.10      5.37202
 C   258 -- C   603       -0.10      5.37202
 C   257 -- C   602       -0.10      5.37202
 C   256 -- C   601       -0.10      5.37202
 C   219 -- C   569       -0.10      5.37202
 C   218 -- C   568       -0.10      5.37202
 C   217 -- C   567       -0.10      5.37202
 C   216 -- C   566       -0.10      5.37202
 C    11 -- C   331       -0.10      5.37202
 C   205 -- C   550       -0.10      5.37202
 C   204 -- C   549       -0.10      5.37202
 C   203 -- C   548       -0.10      5.37202
 C   202 -- C   547       -0.10      5.37202
 C   201 -- C   546       -0.10      5.37202
 C    15 -- C   335       -0.10      5.37202
 C    30 -- C   355       -0.10      5.37202
 C    30 -- C   325       -0.10      5.37202
 C    14 -- C   334       -0.10      5.37202
 C    29 -- C   354       -0.10      5.37202
 C    29 -- C   324       -0.10      5.37202
 C   260 -- C   550       -0.10      5.37202
 C   259 -- C   549       -0.10      5.37202
 C    28 -- C   353       -0.10      5.37202
 C   258 -- C   548       -0.10      5.37202
 C   257 -- C   547       -0.10      5.37202
 C   256 -- C   546       -0.10      5.37202
 C    28 -- C   323       -0.10      5.37202
 C    27 -- C   352       -0.10      5.37202
 C    13 -- C   333       -0.10      5.37202
 C   250 -- C   540       -0.10      5.37202
 C   249 -- C   539       -0.10      5.37202
 C   248 -- C   538       -0.10      5.37202
 C   247 -- C   537       -0.10      5.37202
 C   246 -- C   536       -0.10      5.37202
 C    27 -- C   322       -0.10      5.37202
 C    26 -- C   351       -0.10      5.37202
 C    55 -- C   335       -0.10      5.37202
 C    26 -- C   321       -0.10      5.37202
 C    54 -- C   334       -0.10      5.37202
 C    12 -- C   332       -0.10      5.37202
 C    53 -- C   333       -0.10      5.37202
 C   230 -- C   580       -0.10      5.37202
 C   230 -- C   525       -0.10      5.37202
 C   229 -- C   579       -0.10      5.37202
 C   229 -- C   524       -0.10      5.37202
 C   228 -- C   578       -0.10      5.37202
 C    52 -- C   332       -0.10      5.37202
 C   228 -- C   523       -0.10      5.37202
 C   227 -- C   577       -0.10      5.37202
 C   227 -- C   522       -0.10      5.37202
 C   226 -- C   576       -0.10      5.37202
 C   226 -- C   521       -0.10      5.37202
 C    51 -- C   331       -0.10      5.37202
 C   220 -- C   570       -0.10      5.37202
 C   220 -- C   515       -0.10      5.37202
 C   219 -- C   514       -0.10      5.37202
 C   218 -- C   513       -0.10      5.37202
 C   217 -- C   512       -0.10      5.37202
 C   216 -- C   511       -0.10      5.37202
 C    95 -- C   425       -0.10      5.37202
 C    95 -- C   365       -0.10      5.37202
 C    94 -- C   424       -0.10      5.37202
 C    94 -- C   364       -0.10      5.37202
 C    93 -- C   423       -0.10      5.37202
 C   195 -- C   540       -0.10      5.37202
 C   195 -- C   500       -0.10      5.37202
 C    93 -- C   363       -0.10      5.37202
 C   194 -- C   539       -0.10      5.37202
 C    92 -- C   422       -0.10      5.37202
 C   194 -- C   499       -0.10      5.37202
 C   193 -- C   538       -0.10      5.37202
 C   193 -- C   498       -0.10      5.37202
 C    92 -- C   362       -0.10      5.37202
 C   192 -- C   537       -0.10      5.37202
 C    91 -- C   421       -0.10      5.37202
 C   192 -- C   497       -0.10      5.37202
 C   191 -- C   536       -0.10      5.37202
 C   191 -- C   496       -0.10      5.37202
 C    91 -- C   361       -0.10      5.37202
 C    85 -- C   355       -0.10      5.37202
 C   180 -- C   515       -0.10      5.37202
 C    40 -- C   365       -0.10      5.37202
 C    84 -- C   354       -0.10      5.37202
 C   179 -- C   514       -0.10      5.37202
 C    83 -- C   353       -0.10      5.37202
 C   178 -- C   513       -0.10      5.37202
 C   177 -- C   512       -0.10      5.37202
 C    82 -- C   352       -0.10      5.37202
 C    39 -- C   364       -0.10      5.37202
 C   176 -- C   511       -0.10      5.37202
 C    81 -- C   351       -0.10      5.37202
 C    38 -- C   363       -0.10      5.37202
 C    37 -- C   362       -0.10      5.37202
 C    36 -- C   361       -0.10      5.37202
 C    65 -- C   395       -0.10      5.37202
 C    65 -- C   345       -0.10      5.37202
 C    64 -- C   394       -0.10      5.37202
 C    64 -- C   344       -0.10      5.37202
 C    63 -- C   393       -0.10      5.37202
 C    63 -- C   343       -0.10      5.37202
 C    62 -- C   392       -0.10      5.37202
 C    62 -- C   342       -0.10      5.37202
 C    61 -- C   391       -0.10      5.37202
 C    61 -- C   341       -0.10      5.37202
 C   120 -- C   395       -0.10      5.37202
 C    55 -- C   385       -0.10      5.37202
 C   119 -- C   394       -0.10      5.37202
 C   118 -- C   393       -0.10      5.37202
 C   117 -- C   392       -0.10      5.37202
 C    54 -- C   384       -0.10      5.37202
 C   116 -- C   391       -0.10      5.37202
 C    53 -- C   383       -0.10      5.37202
 C    52 -- C   382       -0.10      5.37202
 C    51 -- C   381       -0.10      5.37202
 C   150 -- C   440       -0.10      5.37202
 C   149 -- C   439       -0.10      5.37202
 C   148 -- C   438       -0.10      5.37202
 C   147 -- C   437       -0.10      5.37202
 C   146 -- C   436       -0.10      5.37202
 C   135 -- C   460       -0.10      5.37202
 C   134 -- C   459       -0.10      5.37202
 C   133 -- C   458       -0.10      5.37202
 C   132 -- C   457       -0.10      5.37202
 C   131 -- C   456       -0.10      5.37202
 C   106 -- C   436       -0.10      5.37202
 C   106 -- C   376       -0.10      5.37202
 C    80 -- C   410       -0.10      5.37202
 C    79 -- C   409       -0.10      5.37202
 C    78 -- C   408       -0.10      5.37202
 C    77 -- C   407       -0.10      5.37202
 C    76 -- C   406       -0.10      5.37202
 C   135 -- C   410       -0.10      5.37202
 C   134 -- C   409       -0.10      5.37202
 C   133 -- C   408       -0.10      5.37202
 C   132 -- C   407       -0.10      5.37202
 C   131 -- C   406       -0.10      5.37202
 C   110 -- C   440       -0.10      5.37202
 C   110 -- C   380       -0.10      5.37202
 C   109 -- C   439       -0.10      5.37202
 C   109 -- C   379       -0.10      5.37202
 C   108 -- C   438       -0.10      5.37202
 C   108 -- C   378       -0.10      5.37202
 C   107 -- C   437       -0.10      5.37202
 C   107 -- C   377       -0.10      5.37202
 C   215 -- C   635       -0.10      5.38000
 C   214 -- C   634       -0.10      5.38000
 C   213 -- C   633       -0.10      5.38000
 C   212 -- C   632       -0.10      5.38000
 C   211 -- C   631       -0.10      5.38000
 C   190 -- C   620       -0.10      5.38000
 C   189 -- C   619       -0.10      5.38000
 C   188 -- C   618       -0.10      5.38000
 C   187 -- C   617       -0.10      5.38000
 C   186 -- C   616       -0.10      5.38000
 C   175 -- C   595       -0.10      5.38000
 C   174 -- C   594       -0.10      5.38000
 C   173 -- C   593       -0.10      5.38000
 C   172 -- C   592       -0.10      5.38000
 C   171 -- C   591       -0.10      5.38000
 C   245 -- C   640       -0.10      5.38000
 C   244 -- C   639       -0.10      5.38000
 C   243 -- C   638       -0.10      5.38000
 C   242 -- C   637       -0.10      5.38000
 C   241 -- C   636       -0.10      5.38000
==================================================


=================== Orbital energy and occupancy information ===================

      Total number of orbitals:    2560
        Occupancy sum (kernel):    1280.000000000
   Occupancy sum (eigenvalues):    1280.000000000
                 HOMO-LUMO gap:       0.063267608 Eh
                 Mid-gap level:       0.260219674 Eh

                        Orbital | Energy (Eh) | Occupancy
                            1    -0.464993652   1.0000000
                        .......   ...........   .........
                         1271     0.222988633   0.9999888
                         1272     0.223022897   0.9999886
                         1273     0.223460163   0.9999869
                         1274     0.223494372   0.9999868
                         1275     0.227190193   0.9999577
                         1276     0.227201420   0.9999575
                         1277     0.227645793   0.9999511
                         1278     0.227656813   0.9999510
                         1279     0.228142060   0.9999428
                         1280     0.228585870   0.9999342
                        ....... -- gap at 0K -- .........
                         1281     0.291853478   0.0000319
                         1282     0.291862949   0.0000318
                         1283     0.292106302   0.0000295
                         1284     0.292115640   0.0000294
                         1285     0.292620605   0.0000252
                         1286     0.292630034   0.0000251
                         1287     0.292888617   0.0000231
                         1288     0.292898016   0.0000231
                         1289     0.293186485   0.0000211
                         1290     0.293407585   0.0000195
                        .......   ...........   .........
                         2560     1.151682680   0.0000000

================================================================================

===================== Writing canonical molecular orbitals =====================
| Orbital  Energy (eV)  Norm     |
| HOMO      6.22013802  1.000000 | Writing "3.354_GO_manual_4x64graphite_HOMO.cube" ... done
Writing "3.354_GO_manual_4x64graphite_HOMO.dx" ... done
| LUMO      7.94173723  1.000000 | Writing "3.354_GO_manual_4x64graphite_LUMO.cube" ... done
Writing "3.354_GO_manual_4x64graphite_LUMO.dx" ... done
================================================================================
 
===================== Density of States (DOS) calculation ======================
Writing "3.354_GO_manual_4x64graphite_DOS.txt" ...  done
================================================================================
 
Writing bands to file "3.354_GO_manual_4x64graphite.val_bands" ... done
 
================ Projected Density of States (pDOS) calculation ================
 
Constructing AM resolved functions  ...... done
Writing NGWF plot files in formats: CUBE DX ...  done
 
Performing overlap integrals ...  done
 
Computing pDOS weights ...  done
 
All bands spilling parameter =   3.81 %
Occupancy-weighted spilling parameter =   0.87 %
 
 => Outputting data for OptaDOS <=
 
Writing pDOS weights to file "3.354_GO_manual_4x64graphite.val_pdos_bin" ... done
 
Writing band gradients to file "3.354_GO_manual_4x64graphite.val_dome_bin" ... done
 
Writing Castep output cell file to "3.354_GO_manual_4x64graphite-out.cell" ... done
 
 => Computing Gaussian smeared pDOS <= 
Writing "3.354_GO_manual_4x64graphite_PDOS.txt" ...  done
 
 => Computing Occupancy-weighted Gaussian smeared pDOS <= 
Writing "3.354_GO_manual_4x64graphite_occ_PDOS.txt" ...  done
  => Band centres: 
 S band centre of group 1:  -13.848636 eV
 P band centre of group 1:   -6.736291 eV
  Band centres done. <=
  => Integrated number of electrons in each AM band: 
 S num electrons of group 1:  575.668781
 P num electrons of group 1: 1962.124802
  Integrated number of electrons done. <=
================================================================================

------------------------------ TIMING INFORMATION ------------------------------
AVERAGE TIME:    4059.561s on     40 node(s)                                    
TOTAL TIME:      4059.561s on     40 node(s)                                    
================= AVERAGE TIMINGS FROM ALL NODES (CUMULATIVE) ==================
|| TAG                                    #calls    cpu time   %total  Gflops ||
|| work_imbalance                       :     1        0.00s   0.000%  ------ ||
|| paw_tcore_hartree_on_grid            :     1        0.00s   0.000%  ------ ||
|| paw_tcore_density                    :     1        0.01s   0.000%  ------ ||
|| paw_sphere_density_on_grid           :     1        0.01s   0.000%  ------ ||
|| sparse_set_to_garbage                :   171        0.03s   0.001%  ------ ||
|| paw_dij_hartree                      :   361        0.05s   0.001%  ------ ||
|| pseudo_make_structure_factor         :     1        0.05s   0.001%  ------ ||
|| basis_extract_function_from_box      :  1920        0.08s   0.002%  ------ ||
|| paw_species_calc_proj_prec_mat       :     1        0.12s   0.003%  ------ ||
|| paw_dataset_init                     :     1        0.15s   0.004%  ------ ||
|| density_init_guess_real              :     1        0.19s   0.005%  ------ ||
|| ngwfs_initialise_from_radial         :     2        0.66s   0.016%  ------ ||
|| sparse_init                          :     1        0.96s   0.024%  ------ ||
|| dense_normal_eigensolve              :     1        1.01s   0.025%  ------ ||
|| hartree_on_grid                      :   271        1.49s   0.037%  ------ ||
|| ewald_calculate_energy               :     1        2.47s   0.061%  ------ ||
|| restart_kernel_write                 :    16        2.58s   0.063%  ------ ||
|| projectors_init_fftbox_recip         :   151        2.98s   0.073%  ------ ||
|| fourier_apply_box_pair               :  2848        4.71s   0.116% 561.400 ||
|| basis_copy_function_to_box           : 25600        5.52s   0.136%  ------ ||
|| augmentation_screen_dij              :   276        6.15s   0.152%  ------ ||
|| sw_init                              :     1        6.73s   0.166%  ------ ||
|| sparse_embed_hotelling_invert_embed  :    29        9.00s   0.222%  ------ ||
|| ngwf_gradient_coeffs                 :    15       11.93s   0.294%  ------ ||
|| fourier_apply_cell_backward          :  8372       15.65s   0.385%  62.818 ||
|| cell_grid_extract_box_real           : 10764       16.88s   0.416%  ------ ||
|| fourier_apply_cell_forward           :  7831       17.03s   0.420%  53.968 ||
|| sparse_trace                         :  3274       18.49s   0.455%  ------ ||
|| cell_grid_deposit_box_real           : 34864       22.64s   0.558%  ------ ||
|| paw_dij_xc                           :   361       24.07s   0.593%  ------ ||
|| aug_nonlocal_mat                     :   346       36.69s   0.904%  ------ ||
|| density_fftbox_deposit_to_cell       : 17344       45.48s   1.120%  ------ ||
|| hamiltonian_energy_components        :     3       49.09s   1.209%  ------ ||
|| augmentation_density_on_grid         :   271       52.77s   1.300%  ------ ||
|| eigenstates_pdos                     :     1       55.02s   1.355%  ------ ||
|| eigenstates_calculate                :     1       59.39s   1.463%  ------ ||
|| function_ops_brappd_ketppd           :    60       64.08s   1.579%  ------ ||
|| nlxc_vdw_energy                      :   540       67.86s   1.672%  ------ ||
|| projectors_func_ovlp_box             :    30       70.95s   1.748%  ------ ||
|| xc_energy_potential                  :   270       77.37s   1.906%  ------ ||
|| integrals_kinetic                    :    29      106.04s   2.612%  ------ ||
|| properties_calculate                 :     1      107.98s   2.660%  ------ ||
|| dense_eigensolve                     :   238      117.69s   2.899%  ------ ||
|| potential_apply_to_ngwf_batch        :   336      131.19s   3.232%  ------ ||
|| restart_ngwfs_tightbox_output        :    14      131.52s   3.240%  ------ ||
|| sparse_product                       :  3294      149.03s   3.671%  ------ ||
|| basis_dot_function_with_box          : 8.439M     226.55s   5.581%  ------ ||
|| fourier_apply_box                    : 80624      250.24s   6.164% 979.626 ||
|| edft_diag_ngwf_ham                   :   237      263.26s   6.485%  ------ ||
|| projectors_gradient_batch            :    60      276.07s   6.800%  ------ ||
|| integrals_locpot_mat_els_batch       :   336      309.88s   7.633%  ------ ||
|| density_fftbox_interpolate_multiply  : 17344      336.15s   8.280%  ------ ||
|| projectors_grad_precond_batch        :    60      399.31s   9.836%  ------ ||
|| density_batch_interp_deposit         :  1084      423.43s  10.430%  ------ ||
|| integrals_locpot_dbl_grid            :    84      442.75s  10.906%  ------ ||
|| edft_apply_smearing_operator         :   237      514.18s  12.666%  ------ ||
|| basis_add_function_to_box            : 24.07M     620.62s  15.288%  ------ ||
|| ngwf_gradient_build_batch            :    60      720.75s  17.754%  ------ ||
|| density_batch_row_sums               :  1084      898.47s  22.132%  ------ ||
|| ngwf_gradient_batch                  :    60      956.87s  23.571%  ------ ||
|| ngwf_gradient_lnv                    :    15      994.48s  24.497%  ------ ||
|| density_on_dbl_grid                  :   271     1335.51s  32.898%  ------ ||
|| hamiltonian_lhxc_calculate           :   266     1444.56s  35.584%  ------ ||
|| edft_calculate                       :    15     2395.44s  59.007%  ------ ||
|| ngwf_cg_optimise                     :     1     3926.11s  96.713%  ------ ||
|| total_time                           :     1     4059.56s 100.000%  ------ ||
================================================================================
Overhead of generating timer report: 
- 0 ms averaging over threads,
- 5 ms ensuring consistency across MPI ranks,
- 0 ms printing in order.

Job completed: 24-02-2020 23:21 (-0000)

