 +---------------------------------------------------------------+
 |                                                               |
 |        ####### #     # ####### ####### ####### ######         |
 |        #     # ##    # #          #    #       #     #        |
 |        #     # # #   # #          #    #       #     #        |
 |        #     # #  #  # #####      #    #####   ######         |
 |        #     # #   # # #          #    #       #              |
 |        #     # #    ## #          #    #       #              |
 |        ####### #     # #######    #    ####### #              |
 |                                                               |
 |        Linear-Scaling Ab Initio Total Energy Program          |
 |                                                               |
 |          Release for academic collaborators of ODG            |
 |                                             Version 5.3.2.12  |
 |                                                               |
 +---------------------------------------------------------------+
 |                                                               |
 |  Authors:                                                     |
 |  Jacek Dziedzic, Peter D. Haynes, Nicholas D. M. Hine,        |
 |  Arash. A. Mostofi, Mike C. Payne and Chris-Kriton Skylaris   |
 |                                                               |
 |  Contributors:                                                |
 |  J. Aarons, L. Andrinopoulos, P. W. Avraam, R. A. Bell,       |
 |  A. Bhandari, G. A. Bramley, R. J. Charlton, S. J. Clark,     |
 |  R. J. Clements, G. C. Constantinescu, F. Corsetti,           |
 |  N. Corsini, O. Dieguez, S. M. M. Dubois, K. K. B. Duff,      |
 |  J. M. Escartin, A. Greco, H. Helal, Q. O. Hill, L. P. Lee,   |
 |  J.-H. Li, E. B. Linscott, G. Moynihan, D. D. O`Regan,        |
 |  O. K. Okan, M. J. S. Phipps, C. J. Pickard,                  |
 |  J. C. A. Prentice, M. I. J. Probert, L. E. Ratcliff,         |
 |  M. Robinson, A. Ruiz Serrano, J. S. Spencer, E. W. Tait,     |
 |  G. Teobaldi, D. Turban, V. Vitale, K. A. Wilkinson,          |
 |  C. Weber, J. C. Womack, N. Yeung and T. J. Zuehlsdorff       |
 |                                                               |
 |                                   Copyright (c) 2004-2020     |
 |                                                               |
 |  Please cite:                                                 |
 |  "Introducing ONETEP: Linear-scaling density functional       |
 |   simulations on parallel computers".                         |
 |   C.-K. Skylaris, P. D. Haynes, A. A. Mostofi, M. C. Payne.   |
 |   J. Chem. Phys. 122 084119 (2005).                           |
 |                                                               |
 |          in all publications arising from your use of ONETEP. |
 |                                                               |
 +---------------------------------------------------------------+
 |                                                               |
 |   ONETEP is based on developments described in the following  |
 |   publications:                                               |
 |                                                               |
 |  "Nonorthogonal generalized Wannier function pseudopotential  |
 |   plane-wave method".                                         |
 |   C.-K. Skylaris, A. A. Mostofi, P. D. Haynes, O. Dieguez,    |
 |   M. C. Payne.                                                |
 |   Phys. Rev. B 66 035119 (2002).                              |
 |                                                               |
 |  "Preconditioned iterative minimization for linear-scaling    |
 |   electronic structure calculations".                         |
 |   A. A. Mostofi, P. D. Haynes, C.-K. Skylaris, M. C. Payne.   |
 |   J. Chem. Phys. 119(17), pp.8842-8848 (2003).                |
 |                                                               |
 |  "Total-energy calculations on a real space grid with         |
 |   localized functions and a plane-wave basis".                |
 |   A. A. Mostofi, C.-K. Skylaris, P. D. Haynes, M. C. Payne.   |
 |   Comput. Phys. Commun. 147, pp.788-802 (2002).               |
 |                                                               |
 |  "Accurate kinetic energy evaluation in electronic structure  |
 |   calculations with localized functions on real space grids"  |
 |   C.-K. Skylaris, A. A. Mostofi, P. D. Haynes, C. J. Pickard, |
 |   M. C. Payne.                                                |
 |   Comput. Phys. Commun. 140, pp.315-322 (2001).               |
 |                                                               |
 |  "Accurate ionic forces and geometry optimization in linear-  |
 |   scaling density-functional theory with local orbitals"      |
 |   N. D. M. Hine, M. Robinson, P. D. Haynes, C.-K. Skylaris,   |
 |   M. C. Payne, and A. A. Mostofi.                             |
 |   Phys. Rev. B 83 195102 (2011).                              |
 |                                                               |
 +---------------------------------------------------------------+

Job started: 24-02-2020 22:21 (-0000)
 
Reading parameters from file "3.4344936_GO_manual_4x64graphite.dat" ...

WARNING: "cutoff_energy" not specified, but "psinc_spacing" specified.
         Using the latter to set the KE cutoff energy to  732.32021eV,
         thus *overriding* the default.

... done

If your calculation crashes here, before "Checking processes and threads..."
is displayed, then your stack size is insufficient.
If so, use "ulimit -s unlimited" at runtime.
You can disable this check with "check_stack_size F".

Checking processes and threads...
   Determining the default number of threads...
      No default threads set at compilation time: defaulting to 1.
      OpenMP library call suggests 4 threads.
      Hybrid MPI-OpenMP compilation detected.
      Number of MPI processes > 1.
      OMP_NUM_THREADS environment variable present and
      its value matches the one obtained from the OpenMP library call.
      Using this value as default.
      Default threads: 4
      Default applies to threads_max and threads_num_fftboxes.
      Settings in the input file override this default.
   ... done

   Running with 40 MPI processes.
   There are 10 MPI processes running on the same node as the root process.
   Each MPI process is using: 
               1 threads for simulation cell FFTs.
               1 threads for parallel FFT box operations.
               4 threads for loops over batched FFT box operations.
               4 threads in other parallel regions.
... done

Basic input checks...
Resetting ngwf_cg_rotate to TRUE for EDFT calculations
... done

Reading geometry and species blocks from file "3.4344936_GO_manual_4x64graphite.dat" ...
    
  PSINC grid spacing along a1 set to   0.511215680000a0 from input file.
  PSINC grid spacing along a2 set to   0.531284090000a0 from input file.
  PSINC grid spacing along a3 set to   0.507052000000a0 from input file.
  Number of PPD points along a3 set to 1.  This is 
  the default value, it may have been provided also in the input file.
... done
 Writing xyz coordinates to file "3.4344936_GO_manual_4x64graphite.xyz" ... done


--------------------------------------------------------------------------------
---------------------------------- INPUT FILE ----------------------------------
--------------------------------------------------------------------------------

task : singlepoint                                                              
do_properties : true                                                            
dx_format T                                                                     
edft T                                                                          
output_detail VERBOSE                                                           
write_xyz T                                                                     
xc_functional OPTPBE                                                            
PSINC_SPACING 0.51121568 0.53128409 0.50705200                                  
paw T                                                                           
pdos_max_l = 2                                                                  
dos_smear  0.1 eV                                                               
popn_calculate T                                                                
PDOS_PSEUDOATOMIC T                                                             
PDOS_REDUCE_SWS F                                                               
PDOS_CONSTRUCT_BASIS F                                                          
PDOS_LOWDIN T                                                                   
PDOS_ORTH_ATOM_BLOCKS F                                                         
PDOS_LCAO_OPTIMIZE F                                                            
pdos_optados_output T                                                           
homo_plot 0                                                                     
lumo_plot 0                                                                     
homo_dens_plot -1                                                               
lumo_dens_plot -1                                                               
%BLOCK SPECIES                                                                  
C C 6 4 9.0                                                                     
%ENDBLOCK SPECIES                                                               
%BLOCK SPECIES_POT                                                              
C "~/pp/paw/c_pbe_abinit.paw"                                                   
%ENDBLOCK SPECIES_POT                                                           
%BLOCK SPECIES_ATOMIC_SET                                                       
C "SOLVE conf=2s2 2p2"                                                          
%ENDBLOCK SPECIES_ATOMIC_SET                                                    
%BLOCK LATTICE_CART                                                             
32.21  0.00  0.00                                                               
0.00 18.59  0.00                                                                
0.00  0.00 64.90                                                                
%ENDBLOCK LATTICE_CART                                                          
%BLOCK POSITIONS_ABS                                                            
C  0.00  0.00  3.25                                                             
C  0.00  0.00 16.23                                                             
C  0.00  0.00 29.21                                                             
C  0.00  0.00 42.19                                                             
C  0.00  0.00 55.17                                                             
C  0.00  4.65  3.25                                                             
C  0.00  4.65 16.23                                                             
C  0.00  4.65 29.21                                                             
C  0.00  4.65 42.19                                                             
C  0.00  4.65 55.17                                                             
C  4.03  2.32  3.25                                                             
C  4.03  2.32 16.23                                                             
C  4.03  2.32 29.21                                                             
C  4.03  2.32 42.19                                                             
C  4.03  2.32 55.17                                                             
C  8.05  0.00  3.25                                                             
C  8.05  0.00 16.23                                                             
C  8.05  0.00 29.21                                                             
C  8.05  0.00 42.19                                                             
C  8.05  0.00 55.17                                                             
C  0.00  9.30  3.25                                                             
C  0.00  9.30 16.23                                                             
C  0.00  9.30 29.21                                                             
C  0.00  9.30 42.19                                                             
C  0.00  9.30 55.17                                                             
C  4.03  6.97  3.25                                                             
C  4.03  6.97 16.23                                                             
C  4.03  6.97 29.21                                                             
C  4.03  6.97 42.19                                                             
C  4.03  6.97 55.17                                                             
C  8.05  4.65  3.25                                                             
C  8.05  4.65 16.23                                                             
C  8.05  4.65 29.21                                                             
C  8.05  4.65 42.19                                                             
C  8.05  4.65 55.17                                                             
C 12.08  2.32  3.25                                                             
C 12.08  2.32 16.23                                                             
C 12.08  2.32 29.21                                                             
C 12.08  2.32 42.19                                                             
C 12.08  2.32 55.17                                                             
C 16.10  0.00  3.25                                                             
C 16.10  0.00 16.23                                                             
C 16.10  0.00 29.21                                                             
C 16.10  0.00 42.19                                                             
C 16.10  0.00 55.17                                                             
C  0.00 13.95  3.25                                                             
C  0.00 13.95 16.23                                                             
C  0.00 13.95 29.21                                                             
C  0.00 13.95 42.19                                                             
C  0.00 13.95 55.17                                                             
C  4.03 11.62  3.25                                                             
C  4.03 11.62 16.23                                                             
C  4.03 11.62 29.21                                                             
C  4.03 11.62 42.19                                                             
C  4.03 11.62 55.17                                                             
C  8.05  9.30  3.25                                                             
C  8.05  9.30 16.23                                                             
C  8.05  9.30 29.21                                                             
C  8.05  9.30 42.19                                                             
C  8.05  9.30 55.17                                                             
C 12.08  6.97  3.25                                                             
C 12.08  6.97 16.23                                                             
C 12.08  6.97 29.21                                                             
C 12.08  6.97 42.19                                                             
C 12.08  6.97 55.17                                                             
C 16.10  4.65  3.25                                                             
C 16.10  4.65 16.23                                                             
C 16.10  4.65 29.21                                                             
C 16.10  4.65 42.19                                                             
C 16.10  4.65 55.17                                                             
C 20.13  2.32  3.25                                                             
C 20.13  2.32 16.23                                                             
C 20.13  2.32 29.21                                                             
C 20.13  2.32 42.19                                                             
C 20.13  2.32 55.17                                                             
C 24.16  0.00  3.25                                                             
C 24.16  0.00 16.23                                                             
C 24.16  0.00 29.21                                                             
C 24.16  0.00 42.19                                                             
C 24.16  0.00 55.17                                                             
C  4.03 16.27  3.25                                                             
C  4.03 16.27 16.23                                                             
C  4.03 16.27 29.21                                                             
C  4.03 16.27 42.19                                                             
C  4.03 16.27 55.17                                                             
C  8.05 13.95  3.25                                                             
C  8.05 13.95 16.23                                                             
C  8.05 13.95 29.21                                                             
C  8.05 13.95 42.19                                                             
C  8.05 13.95 55.17                                                             
C 12.08 11.62  3.25                                                             
C 12.08 11.62 16.23                                                             
C 12.08 11.62 29.21                                                             
C 12.08 11.62 42.19                                                             
C 12.08 11.62 55.17                                                             
C 16.10  9.30  3.25                                                             
C 16.10  9.30 16.23                                                             
C 16.10  9.30 29.21                                                             
C 16.10  9.30 42.19                                                             
C 16.10  9.30 55.17                                                             
C 20.13  6.97  3.25                                                             
C 20.13  6.97 16.23                                                             
C 20.13  6.97 29.21                                                             
C 20.13  6.97 42.19                                                             
C 20.13  6.97 55.17                                                             
C 24.16  4.65  3.25                                                             
C 24.16  4.65 16.23                                                             
C 24.16  4.65 29.21                                                             
C 24.16  4.65 42.19                                                             
C 24.16  4.65 55.17                                                             
C 28.18  2.32  3.25                                                             
C 28.18  2.32 16.23                                                             
C 28.18  2.32 29.21                                                             
C 28.18  2.32 42.19                                                             
C 28.18  2.32 55.17                                                             
C 12.08 16.27  3.25                                                             
C 12.08 16.27 16.23                                                             
C 12.08 16.27 29.21                                                             
C 12.08 16.27 42.19                                                             
C 12.08 16.27 55.17                                                             
C 16.10 13.95  3.25                                                             
C 16.10 13.95 16.23                                                             
C 16.10 13.95 29.21                                                             
C 16.10 13.95 42.19                                                             
C 16.10 13.95 55.17                                                             
C 20.13 11.62  3.25                                                             
C 20.13 11.62 16.23                                                             
C 20.13 11.62 29.21                                                             
C 20.13 11.62 42.19                                                             
C 20.13 11.62 55.17                                                             
C 24.16  9.30  3.25                                                             
C 24.16  9.30 16.23                                                             
C 24.16  9.30 29.21                                                             
C 24.16  9.30 42.19                                                             
C 24.16  9.30 55.17                                                             
C 28.18  6.97  3.25                                                             
C 28.18  6.97 16.23                                                             
C 28.18  6.97 29.21                                                             
C 28.18  6.97 42.19                                                             
C 28.18  6.97 55.17                                                             
C 20.13 16.27  3.25                                                             
C 20.13 16.27 16.23                                                             
C 20.13 16.27 29.21                                                             
C 20.13 16.27 42.19                                                             
C 20.13 16.27 55.17                                                             
C 24.16 13.95  3.25                                                             
C 24.16 13.95 16.23                                                             
C 24.16 13.95 29.21                                                             
C 24.16 13.95 42.19                                                             
C 24.16 13.95 55.17                                                             
C 28.18 11.62  3.25                                                             
C 28.18 11.62 16.23                                                             
C 28.18 11.62 29.21                                                             
C 28.18 11.62 42.19                                                             
C 28.18 11.62 55.17                                                             
C 28.18 16.27  3.25                                                             
C 28.18 16.27 16.23                                                             
C 28.18 16.27 29.21                                                             
C 28.18 16.27 42.19                                                             
C 28.18 16.27 55.17                                                             
C  0.00  0.00  9.74                                                             
C  0.00  0.00 22.72                                                             
C  0.00  0.00 35.70                                                             
C  0.00  0.00 48.68                                                             
C  0.00  0.00 61.66                                                             
C  0.00  4.65  9.74                                                             
C  0.00  4.65 22.72                                                             
C  0.00  4.65 35.70                                                             
C  0.00  4.65 48.68                                                             
C  0.00  4.65 61.66                                                             
C  4.03  2.32  9.74                                                             
C  4.03  2.32 22.72                                                             
C  4.03  2.32 35.70                                                             
C  4.03  2.32 48.68                                                             
C  4.03  2.32 61.66                                                             
C  8.05  0.00  9.74                                                             
C  8.05  0.00 22.72                                                             
C  8.05  0.00 35.70                                                             
C  8.05  0.00 48.68                                                             
C  8.05  0.00 61.66                                                             
C  0.00  9.30  9.74                                                             
C  0.00  9.30 22.72                                                             
C  0.00  9.30 35.70                                                             
C  0.00  9.30 48.68                                                             
C  0.00  9.30 61.66                                                             
C  4.03  6.97  9.74                                                             
C  4.03  6.97 22.72                                                             
C  4.03  6.97 35.70                                                             
C  4.03  6.97 48.68                                                             
C  4.03  6.97 61.66                                                             
C  8.05  4.65  9.74                                                             
C  8.05  4.65 22.72                                                             
C  8.05  4.65 35.70                                                             
C  8.05  4.65 48.68                                                             
C  8.05  4.65 61.66                                                             
C 12.08  2.32  9.74                                                             
C 12.08  2.32 22.72                                                             
C 12.08  2.32 35.70                                                             
C 12.08  2.32 48.68                                                             
C 12.08  2.32 61.66                                                             
C 16.10  0.00  9.74                                                             
C 16.10  0.00 22.72                                                             
C 16.10  0.00 35.70                                                             
C 16.10  0.00 48.68                                                             
C 16.10  0.00 61.66                                                             
C  0.00 13.95  9.74                                                             
C  0.00 13.95 22.72                                                             
C  0.00 13.95 35.70                                                             
C  0.00 13.95 48.68                                                             
C  0.00 13.95 61.66                                                             
C  4.03 11.62  9.74                                                             
C  4.03 11.62 22.72                                                             
C  4.03 11.62 35.70                                                             
C  4.03 11.62 48.68                                                             
C  4.03 11.62 61.66                                                             
C  8.05  9.30  9.74                                                             
C  8.05  9.30 22.72                                                             
C  8.05  9.30 35.70                                                             
C  8.05  9.30 48.68                                                             
C  8.05  9.30 61.66                                                             
C 12.08  6.97  9.74                                                             
C 12.08  6.97 22.72                                                             
C 12.08  6.97 35.70                                                             
C 12.08  6.97 48.68                                                             
C 12.08  6.97 61.66                                                             
C 16.10  4.65  9.74                                                             
C 16.10  4.65 22.72                                                             
C 16.10  4.65 35.70                                                             
C 16.10  4.65 48.68                                                             
C 16.10  4.65 61.66                                                             
C 20.13  2.32  9.74                                                             
C 20.13  2.32 22.72                                                             
C 20.13  2.32 35.70                                                             
C 20.13  2.32 48.68                                                             
C 20.13  2.32 61.66                                                             
C 24.16  0.00  9.74                                                             
C 24.16  0.00 22.72                                                             
C 24.16  0.00 35.70                                                             
C 24.16  0.00 48.68                                                             
C 24.16  0.00 61.66                                                             
C  4.03 16.27  9.74                                                             
C  4.03 16.27 22.72                                                             
C  4.03 16.27 35.70                                                             
C  4.03 16.27 48.68                                                             
C  4.03 16.27 61.66                                                             
C  8.05 13.95  9.74                                                             
C  8.05 13.95 22.72                                                             
C  8.05 13.95 35.70                                                             
C  8.05 13.95 48.68                                                             
C  8.05 13.95 61.66                                                             
C 12.08 11.62  9.74                                                             
C 12.08 11.62 22.72                                                             
C 12.08 11.62 35.70                                                             
C 12.08 11.62 48.68                                                             
C 12.08 11.62 61.66                                                             
C 16.10  9.30  9.74                                                             
C 16.10  9.30 22.72                                                             
C 16.10  9.30 35.70                                                             
C 16.10  9.30 48.68                                                             
C 16.10  9.30 61.66                                                             
C 20.13  6.97  9.74                                                             
C 20.13  6.97 22.72                                                             
C 20.13  6.97 35.70                                                             
C 20.13  6.97 48.68                                                             
C 20.13  6.97 61.66                                                             
C 24.16  4.65  9.74                                                             
C 24.16  4.65 22.72                                                             
C 24.16  4.65 35.70                                                             
C 24.16  4.65 48.68                                                             
C 24.16  4.65 61.66                                                             
C 28.18  2.32  9.74                                                             
C 28.18  2.32 22.72                                                             
C 28.18  2.32 35.70                                                             
C 28.18  2.32 48.68                                                             
C 28.18  2.32 61.66                                                             
C 12.08 16.27  9.74                                                             
C 12.08 16.27 22.72                                                             
C 12.08 16.27 35.70                                                             
C 12.08 16.27 48.68                                                             
C 12.08 16.27 61.66                                                             
C 16.10 13.95  9.74                                                             
C 16.10 13.95 22.72                                                             
C 16.10 13.95 35.70                                                             
C 16.10 13.95 48.68                                                             
C 16.10 13.95 61.66                                                             
C 20.13 11.62  9.74                                                             
C 20.13 11.62 22.72                                                             
C 20.13 11.62 35.70                                                             
C 20.13 11.62 48.68                                                             
C 20.13 11.62 61.66                                                             
C 24.16  9.30  9.74                                                             
C 24.16  9.30 22.72                                                             
C 24.16  9.30 35.70                                                             
C 24.16  9.30 48.68                                                             
C 24.16  9.30 61.66                                                             
C 28.18  6.97  9.74                                                             
C 28.18  6.97 22.72                                                             
C 28.18  6.97 35.70                                                             
C 28.18  6.97 48.68                                                             
C 28.18  6.97 61.66                                                             
C 20.13 16.27  9.74                                                             
C 20.13 16.27 22.72                                                             
C 20.13 16.27 35.70                                                             
C 20.13 16.27 48.68                                                             
C 20.13 16.27 61.66                                                             
C 24.16 13.95  9.74                                                             
C 24.16 13.95 22.72                                                             
C 24.16 13.95 35.70                                                             
C 24.16 13.95 48.68                                                             
C 24.16 13.95 61.66                                                             
C 28.18 11.62  9.74                                                             
C 28.18 11.62 22.72                                                             
C 28.18 11.62 35.70                                                             
C 28.18 11.62 48.68                                                             
C 28.18 11.62 61.66                                                             
C 28.18 16.27  9.74                                                             
C 28.18 16.27 22.72                                                             
C 28.18 16.27 35.70                                                             
C 28.18 16.27 48.68                                                             
C 28.18 16.27 61.66                                                             
C  1.34  2.32  3.25                                                             
C  1.34  2.32 16.23                                                             
C  1.34  2.32 29.21                                                             
C  1.34  2.32 42.19                                                             
C  1.34  2.32 55.17                                                             
C  5.37  0.00  3.25                                                             
C  5.37  0.00 16.23                                                             
C  5.37  0.00 29.21                                                             
C  5.37  0.00 42.19                                                             
C  5.37  0.00 55.17                                                             
C  1.34  6.97  3.25                                                             
C  1.34  6.97 16.23                                                             
C  1.34  6.97 29.21                                                             
C  1.34  6.97 42.19                                                             
C  1.34  6.97 55.17                                                             
C  5.37  4.65  3.25                                                             
C  5.37  4.65 16.23                                                             
C  5.37  4.65 29.21                                                             
C  5.37  4.65 42.19                                                             
C  5.37  4.65 55.17                                                             
C  9.39  2.32  3.25                                                             
C  9.39  2.32 16.23                                                             
C  9.39  2.32 29.21                                                             
C  9.39  2.32 42.19                                                             
C  9.39  2.32 55.17                                                             
C 13.42  0.00  3.25                                                             
C 13.42  0.00 16.23                                                             
C 13.42  0.00 29.21                                                             
C 13.42  0.00 42.19                                                             
C 13.42  0.00 55.17                                                             
C  1.34 11.62  3.25                                                             
C  1.34 11.62 16.23                                                             
C  1.34 11.62 29.21                                                             
C  1.34 11.62 42.19                                                             
C  1.34 11.62 55.17                                                             
C  5.37  9.30  3.25                                                             
C  5.37  9.30 16.23                                                             
C  5.37  9.30 29.21                                                             
C  5.37  9.30 42.19                                                             
C  5.37  9.30 55.17                                                             
C  9.39  6.97  3.25                                                             
C  9.39  6.97 16.23                                                             
C  9.39  6.97 29.21                                                             
C  9.39  6.97 42.19                                                             
C  9.39  6.97 55.17                                                             
C 13.42  4.65  3.25                                                             
C 13.42  4.65 16.23                                                             
C 13.42  4.65 29.21                                                             
C 13.42  4.65 42.19                                                             
C 13.42  4.65 55.17                                                             
C 17.45  2.32  3.25                                                             
C 17.45  2.32 16.23                                                             
C 17.45  2.32 29.21                                                             
C 17.45  2.32 42.19                                                             
C 17.45  2.32 55.17                                                             
C 21.47  0.00  3.25                                                             
C 21.47  0.00 16.23                                                             
C 21.47  0.00 29.21                                                             
C 21.47  0.00 42.19                                                             
C 21.47  0.00 55.17                                                             
C  1.34 16.27  3.25                                                             
C  1.34 16.27 16.23                                                             
C  1.34 16.27 29.21                                                             
C  1.34 16.27 42.19                                                             
C  1.34 16.27 55.17                                                             
C  5.37 13.95  3.25                                                             
C  5.37 13.95 16.23                                                             
C  5.37 13.95 29.21                                                             
C  5.37 13.95 42.19                                                             
C  5.37 13.95 55.17                                                             
C  9.39 11.62  3.25                                                             
C  9.39 11.62 16.23                                                             
C  9.39 11.62 29.21                                                             
C  9.39 11.62 42.19                                                             
C  9.39 11.62 55.17                                                             
C 13.42  9.30  3.25                                                             
C 13.42  9.30 16.23                                                             
C 13.42  9.30 29.21                                                             
C 13.42  9.30 42.19                                                             
C 13.42  9.30 55.17                                                             
C 17.45  6.97  3.25                                                             
C 17.45  6.97 16.23                                                             
C 17.45  6.97 29.21                                                             
C 17.45  6.97 42.19                                                             
C 17.45  6.97 55.17                                                             
C 21.47  4.65  3.25                                                             
C 21.47  4.65 16.23                                                             
C 21.47  4.65 29.21                                                             
C 21.47  4.65 42.19                                                             
C 21.47  4.65 55.17                                                             
C 25.50  2.32  3.25                                                             
C 25.50  2.32 16.23                                                             
C 25.50  2.32 29.21                                                             
C 25.50  2.32 42.19                                                             
C 25.50  2.32 55.17                                                             
C 29.52  0.00  3.25                                                             
C 29.52  0.00 16.23                                                             
C 29.52  0.00 29.21                                                             
C 29.52  0.00 42.19                                                             
C 29.52  0.00 55.17                                                             
C  9.39 16.27  3.25                                                             
C  9.39 16.27 16.23                                                             
C  9.39 16.27 29.21                                                             
C  9.39 16.27 42.19                                                             
C  9.39 16.27 55.17                                                             
C 13.42 13.95  3.25                                                             
C 13.42 13.95 16.23                                                             
C 13.42 13.95 29.21                                                             
C 13.42 13.95 42.19                                                             
C 13.42 13.95 55.17                                                             
C 17.45 11.62  3.25                                                             
C 17.45 11.62 16.23                                                             
C 17.45 11.62 29.21                                                             
C 17.45 11.62 42.19                                                             
C 17.45 11.62 55.17                                                             
C 21.47  9.30  3.25                                                             
C 21.47  9.30 16.23                                                             
C 21.47  9.30 29.21                                                             
C 21.47  9.30 42.19                                                             
C 21.47  9.30 55.17                                                             
C 25.50  6.97  3.25                                                             
C 25.50  6.97 16.23                                                             
C 25.50  6.97 29.21                                                             
C 25.50  6.97 42.19                                                             
C 25.50  6.97 55.17                                                             
C 29.52  4.65  3.25                                                             
C 29.52  4.65 16.23                                                             
C 29.52  4.65 29.21                                                             
C 29.52  4.65 42.19                                                             
C 29.52  4.65 55.17                                                             
C 17.45 16.27  3.25                                                             
C 17.45 16.27 16.23                                                             
C 17.45 16.27 29.21                                                             
C 17.45 16.27 42.19                                                             
C 17.45 16.27 55.17                                                             
C 21.47 13.95  3.25                                                             
C 21.47 13.95 16.23                                                             
C 21.47 13.95 29.21                                                             
C 21.47 13.95 42.19                                                             
C 21.47 13.95 55.17                                                             
C 25.50 11.62  3.25                                                             
C 25.50 11.62 16.23                                                             
C 25.50 11.62 29.21                                                             
C 25.50 11.62 42.19                                                             
C 25.50 11.62 55.17                                                             
C 29.52  9.30  3.25                                                             
C 29.52  9.30 16.23                                                             
C 29.52  9.30 29.21                                                             
C 29.52  9.30 42.19                                                             
C 29.52  9.30 55.17                                                             
C 25.50 16.27  3.25                                                             
C 25.50 16.27 16.23                                                             
C 25.50 16.27 29.21                                                             
C 25.50 16.27 42.19                                                             
C 25.50 16.27 55.17                                                             
C 29.52 13.95  3.25                                                             
C 29.52 13.95 16.23                                                             
C 29.52 13.95 29.21                                                             
C 29.52 13.95 42.19                                                             
C 29.52 13.95 55.17                                                             
C  2.68  0.00  9.74                                                             
C  2.68  0.00 22.72                                                             
C  2.68  0.00 35.70                                                             
C  2.68  0.00 48.68                                                             
C  2.68  0.00 61.66                                                             
C  2.68  4.65  9.74                                                             
C  2.68  4.65 22.72                                                             
C  2.68  4.65 35.70                                                             
C  2.68  4.65 48.68                                                             
C  2.68  4.65 61.66                                                             
C  6.71  2.32  9.74                                                             
C  6.71  2.32 22.72                                                             
C  6.71  2.32 35.70                                                             
C  6.71  2.32 48.68                                                             
C  6.71  2.32 61.66                                                             
C 10.74  0.00  9.74                                                             
C 10.74  0.00 22.72                                                             
C 10.74  0.00 35.70                                                             
C 10.74  0.00 48.68                                                             
C 10.74  0.00 61.66                                                             
C  2.68  9.30  9.74                                                             
C  2.68  9.30 22.72                                                             
C  2.68  9.30 35.70                                                             
C  2.68  9.30 48.68                                                             
C  2.68  9.30 61.66                                                             
C  6.71  6.97  9.74                                                             
C  6.71  6.97 22.72                                                             
C  6.71  6.97 35.70                                                             
C  6.71  6.97 48.68                                                             
C  6.71  6.97 61.66                                                             
C 10.74  4.65  9.74                                                             
C 10.74  4.65 22.72                                                             
C 10.74  4.65 35.70                                                             
C 10.74  4.65 48.68                                                             
C 10.74  4.65 61.66                                                             
C 14.76  2.32  9.74                                                             
C 14.76  2.32 22.72                                                             
C 14.76  2.32 35.70                                                             
C 14.76  2.32 48.68                                                             
C 14.76  2.32 61.66                                                             
C 18.79  0.00  9.74                                                             
C 18.79  0.00 22.72                                                             
C 18.79  0.00 35.70                                                             
C 18.79  0.00 48.68                                                             
C 18.79  0.00 61.66                                                             
C  2.68 13.95  9.74                                                             
C  2.68 13.95 22.72                                                             
C  2.68 13.95 35.70                                                             
C  2.68 13.95 48.68                                                             
C  2.68 13.95 61.66                                                             
C  6.71 11.62  9.74                                                             
C  6.71 11.62 22.72                                                             
C  6.71 11.62 35.70                                                             
C  6.71 11.62 48.68                                                             
C  6.71 11.62 61.66                                                             
C 10.74  9.30  9.74                                                             
C 10.74  9.30 22.72                                                             
C 10.74  9.30 35.70                                                             
C 10.74  9.30 48.68                                                             
C 10.74  9.30 61.66                                                             
C 14.76  6.97  9.74                                                             
C 14.76  6.97 22.72                                                             
C 14.76  6.97 35.70                                                             
C 14.76  6.97 48.68                                                             
C 14.76  6.97 61.66                                                             
C 18.79  4.65  9.74                                                             
C 18.79  4.65 22.72                                                             
C 18.79  4.65 35.70                                                             
C 18.79  4.65 48.68                                                             
C 18.79  4.65 61.66                                                             
C 22.81  2.32  9.74                                                             
C 22.81  2.32 22.72                                                             
C 22.81  2.32 35.70                                                             
C 22.81  2.32 48.68                                                             
C 22.81  2.32 61.66                                                             
C 26.84  0.00  9.74                                                             
C 26.84  0.00 22.72                                                             
C 26.84  0.00 35.70                                                             
C 26.84  0.00 48.68                                                             
C 26.84  0.00 61.66                                                             
C  6.71 16.27  9.74                                                             
C  6.71 16.27 22.72                                                             
C  6.71 16.27 35.70                                                             
C  6.71 16.27 48.68                                                             
C  6.71 16.27 61.66                                                             
C 10.74 13.95  9.74                                                             
C 10.74 13.95 22.72                                                             
C 10.74 13.95 35.70                                                             
C 10.74 13.95 48.68                                                             
C 10.74 13.95 61.66                                                             
C 14.76 11.62  9.74                                                             
C 14.76 11.62 22.72                                                             
C 14.76 11.62 35.70                                                             
C 14.76 11.62 48.68                                                             
C 14.76 11.62 61.66                                                             
C 18.79  9.30  9.74                                                             
C 18.79  9.30 22.72                                                             
C 18.79  9.30 35.70                                                             
C 18.79  9.30 48.68                                                             
C 18.79  9.30 61.66                                                             
C 22.81  6.97  9.74                                                             
C 22.81  6.97 22.72                                                             
C 22.81  6.97 35.70                                                             
C 22.81  6.97 48.68                                                             
C 22.81  6.97 61.66                                                             
C 26.84  4.65  9.74                                                             
C 26.84  4.65 22.72                                                             
C 26.84  4.65 35.70                                                             
C 26.84  4.65 48.68                                                             
C 26.84  4.65 61.66                                                             
C 30.86  2.32  9.74                                                             
C 30.86  2.32 22.72                                                             
C 30.86  2.32 35.70                                                             
C 30.86  2.32 48.68                                                             
C 30.86  2.32 61.66                                                             
C 14.76 16.27  9.74                                                             
C 14.76 16.27 22.72                                                             
C 14.76 16.27 35.70                                                             
C 14.76 16.27 48.68                                                             
C 14.76 16.27 61.66                                                             
C 18.79 13.95  9.74                                                             
C 18.79 13.95 22.72                                                             
C 18.79 13.95 35.70                                                             
C 18.79 13.95 48.68                                                             
C 18.79 13.95 61.66                                                             
C 22.81 11.62  9.74                                                             
C 22.81 11.62 22.72                                                             
C 22.81 11.62 35.70                                                             
C 22.81 11.62 48.68                                                             
C 22.81 11.62 61.66                                                             
C 26.84  9.30  9.74                                                             
C 26.84  9.30 22.72                                                             
C 26.84  9.30 35.70                                                             
C 26.84  9.30 48.68                                                             
C 26.84  9.30 61.66                                                             
C 30.86  6.97  9.74                                                             
C 30.86  6.97 22.72                                                             
C 30.86  6.97 35.70                                                             
C 30.86  6.97 48.68                                                             
C 30.86  6.97 61.66                                                             
C 22.81 16.27  9.74                                                             
C 22.81 16.27 22.72                                                             
C 22.81 16.27 35.70                                                             
C 22.81 16.27 48.68                                                             
C 22.81 16.27 61.66                                                             
C 26.84 13.95  9.74                                                             
C 26.84 13.95 22.72                                                             
C 26.84 13.95 35.70                                                             
C 26.84 13.95 48.68                                                             
C 26.84 13.95 61.66                                                             
C 30.86 11.62  9.74                                                             
C 30.86 11.62 22.72                                                             
C 30.86 11.62 35.70                                                             
C 30.86 11.62 48.68                                                             
C 30.86 11.62 61.66                                                             
C 30.86 16.27  9.74                                                             
C 30.86 16.27 22.72                                                             
C 30.86 16.27 35.70                                                             
C 30.86 16.27 48.68                                                             
C 30.86 16.27 61.66                                                             
%ENDBLOCK POSITIONS_ABS                                                         

--------------------------------------------------------------------------------
-------------------------------- END INPUT FILE --------------------------------
--------------------------------------------------------------------------------


 
<<<<<<<<<<<<<<<<<<<<<<<<<<<<<<<<< Full system >>>>>>>>>>>>>>>>>>>>>>>>>>>>>>>>>>
<<<<<<<<<<<<<<<<<<<<<<<<<<< PAW Dataset information >>>>>>>>>>>>>>>>>>>>>>>>>>>
File: ~/pp/paw/c_pbe_abinit.paw; rc = 1.25 bohr; shape type =  3; rshape = 1.25 bohr;
  Atomic number:  6;  ionic charge:  4.000000
    Partial Wave 1: l = 0
    Partial Wave 2: l = 0
    Partial Wave 3: l = 1
    Partial Wave 4: l = 1
  Core charge supplied for Nonlinear Core Corrections
<<<<<<<<<<<<<<<<<<<<<<<<<<<<<<<<<<<<<<< >>>>>>>>>>>>>>>>>>>>>>>>>>>>>>>>>>>>>>>

-------------------------- Atom counting information ---------------------------
Symbol    Natoms    Nngwfs    Nprojs
  C        640      2560      5120
.......   ......    ......    ......
Totals:    640      2560      5120
--------------------------------------------------------------------------------

=============================== PSINC grid sizes ===============================
                      Simulation cell:   63 x  35 x 128
                              FFT-box:   63 x  35 x 117
                                  PPD:    7 x   5 x   1
Grid space d1=  0.511269841270a0 (KE cutoff=  29.06054Eh = 790.77748eV)
Grid space d2=  0.531142857143a0 (KE cutoff=  26.92659Eh = 732.70972eV)
Grid space d3=  0.507031250000a0 (KE cutoff=  29.54844Eh = 804.05395eV)
================================================================================
  
WARNING in cell_grid_distribute:
Average of less than one 23-slab per node, so workload cannot be
equally balanced between nodes.

********************* Fourier parallelisation information **********************
       Coarse grid (whole simulation cell) dimensions:     63    35   128
          Real-space ('12') slabs/node (min max mean):      3     4     3
         Recip-space ('23') slabs/node (min max mean):      0     1     0
********************************************************************************

********************* Fourier parallelisation information **********************
       Double grid (whole simulation cell) dimensions:    126    70   256
          Real-space ('12') slabs/node (min max mean):      6     7     6
         Recip-space ('23') slabs/node (min max mean):      1     2     1
********************************************************************************

Atom SCF Calculation for C  : Z (AE atom) =   6 : Z (PS atom) =   4
Config String: 2s2 2p2
Orbitals (num,occ):  2     2.00 2.00
Orbitals   (num,l):  2        0    1
Real-space Grid (nr,dr,rmax): 1293    0.0069659443    9.0000000000
Spherical Bessel Basis (nsws,lmax,cutoff):   37    2  161.4736382572
Confining potential (l,width,scale):  0    3.0000000000  100.0000000000
Confining potential (l,width,scale):  1    3.0000000000  100.0000000000
  1         -5.4795203654   -1.3252209296    4.5135257941   -1.6370402169
  2         -5.4480859746   -1.4027979239    4.4305951748   -1.6109819005
  3         -5.4553164790   -1.4212834043    4.4102618304   -1.6059039466
  4         -5.4627841133   -1.4247091338    4.4065122085   -1.6052907585
  5         -5.4662306655   -1.4266814823    4.4043715292   -1.6049352647
  6         -5.4679520247   -1.4277352742    4.4032348712   -1.6047493439
  7         -5.4688359568   -1.4282868030    4.4026432892   -1.6046541449
  8         -5.4692951245   -1.4285734530    4.4023374832   -1.6046056242
  9         -5.4695349887   -1.4287220785    4.4021797781   -1.6045809101
 10         -5.4696606791   -1.4287991022    4.4020984905   -1.6045683155
 11         -5.4697266650   -1.4288390363    4.4020565747   -1.6045618912
 12         -5.4697613504   -1.4288597596    4.4020349416   -1.6045586107
 13         -5.4697795998   -1.4288705262    4.4020237638   -1.6045569335
 14         -5.4697892089   -1.4288761271    4.4020179806   -1.6045560749
 15         -5.4697942720   -1.4288790448    4.4020149844   -1.6045556348
 16         -5.4697969415   -1.4288805668    4.4020134298   -1.6045554088
 17         -5.4697983498   -1.4288813619    4.4020126220   -1.6045552927
 18         -5.4697990933   -1.4288817779    4.4020122017   -1.6045552329
 19         -5.4697994860   -1.4288819957    4.4020119826   -1.6045552021
 20         -5.4697996936   -1.4288821100    4.4020118683   -1.6045551862
 21         -5.4697998034   -1.4288821701    4.4020118085   -1.6045551780
 22         -5.4697998614   -1.4288822017    4.4020117772   -1.6045551737
Atom SCF converged after  22 iterations to a total energy of     -5.46979986

Determining parallel strategy ...
... using space-filling curve
... NGWF load balancing: max     64;  min     64;  average     64
... Projector load balancing: max    128;  min    128;  average    128
... done
Calculating Ewald energy ...
              Ewald: real-space energy =    9492.616425
        Ewald: reciprocal-space energy =       0.112306
         Ewald: (sum_charge)**2 Energy =   11225.826865
         Ewald: (sum_charge**2) Energy =     887.479538
                          Ewald Energy =   -2620.577672
Basis initialisation ...... NGWF spheres initialised
... Projector spheres initialised
... NGWF tight boxes initialised
... Projector tight boxes initialised
... Tight-boxes gathered
... NGWF basis size (local,global):     693524  27899680
... PAW projector initialisation
... done

============================= Charge Augmentation ==============================
                           Aug box size:   11 x  11 x  11
================================================================================

========================== Sparse matrix information ===========================
                        Overlap matrix filling:  44.38%
                        Density kernel filling: 100.00%
              NGWF-Proj overlap matrix filling:  12.19%
                    Aug Overlap matrix filling:  47.03%
                    Hamiltonian matrix filling:  47.03%
                  NGWF diagonal matrix filling:   0.16%
                             KS matrix filling: 100.00% 
                           KSKS matrix filling: 100.00% 
================================================================================

Sparse matrix initialisation ... done
NGWF initialisation ...... done
============ Calculation of NGWF S^-1 using Hotelling algorithm ================ 
         Iteration  |  Frobenius norm and Maximum abs value    (of I-S*S_n^-1)   
               1       0.49107502E+02     0.97658708E+00
               2       0.47912351E+02     0.95501016E+00
               3       0.46110182E+02     0.91640695E+00
               4       0.43760513E+02     0.85268556E+00
               5       0.40936899E+02     0.75797132E+00
               6       0.37628900E+02     0.68276452E+00
               7       0.34138515E+02     0.63414584E+00
               8       0.30801947E+02     0.59342118E+00
               9       0.27282779E+02     0.55019324E+00
              10       0.22866147E+02     0.48339166E+00
              11       0.17093709E+02     0.37659880E+00
              12       0.10343200E+02     0.23350752E+00
              13       0.43142716E+01     0.95430852E-01
              14       0.89885730E+00     0.18230723E-01
              15       0.46955279E-01     0.81922497E-03
              16       0.16651009E-03     0.21603892E-05
              17       0.31799651E-08     0.24965141E-10
              18       0.78977523E-13     0.42188475E-14
================================================================================
Calculating core density ...
================================= Core Density =================================
               Core den box size:   21 x  21 x  21
================================================================================
 ... done
Up spin density kernel initialisation ...... done

Writing density kernel to file "3.4344936_GO_manual_4x64graphite.dkn" ... done

>>> Optimising kernel for current NGWFs:

--------------------------- Ensemble-DFT optimisation --------------------------
Running ScaLAPACK on   40 processor(s).

--------------------------------------------------------------------------------
  Iter                              Commutator    Free_energy(A=E-TS)     DeltaA
#    0                          0.000036408176   -3650.53163465819489  -3.65E+03

Step                       =       0.381966011250
Energy                     =   -3650.531603816957
Entropy (-TS)              =      -0.000030841696
Free energy (A=E-TS)       =   -3650.531634658195
Est. 0K Energy 0.5*(E+A)   =   -3650.531619237576
Residual Non-orthogonality =       0.000000000000
Residual N_electrons       =       0.000000000457

Spin          Integrated_Ne            Fermi_level     Delta_Fermi_level
   1      2559.999999997726         0.201124264930              2.01E-01

                           Spin 1          
     Orb      H-eigenvalues     Occupancies
       1 |    -0.5232115241    1.0000000000 | 
                          ------
    1276 |     0.1670730509    0.9999786091 | 
    1277 |     0.1676838705    0.9999740585 | 
    1278 |     0.1676986811    0.9999739369 | 
    1279 |     0.1681101321    0.9999703209 | 
    1280 |     0.1687314058    0.9999638883 | 
                 - Gap at zero temperature -
    1281 |     0.2361551661    0.0000156992 | 
    1282 |     0.2361685993    0.0000156328 | 
    1283 |     0.2362142535    0.0000154090 | 
    1284 |     0.2363806036    0.0000146205 | 
    1285 |     0.2363939228    0.0000145591 | 
                          ------
    2560 |     1.0353461878    0.0000000000 | 

                       |  Abs_value |  Threshold | Converged
     Delta_Free_energy |   3.65E+03 |   1.00E-06 |        No
     Delta_Energy      |   3.65E+03 |   1.00E-04 |        No
     Delta_Entropy     |   3.08E-05 |   1.00E-04 |       Yes
     Commutator        |   3.64E-05 |   1.00E-05 |        No
     Delta_Fermi_level |   2.01E-01 |   1.00E-03 |        No

  Line search of the free energy minimum:
  Step_type        Step             Free_energy   Predicted_free_energy
.   Initial    0.000000    -3650.53163465819489
.    Trial1    0.381966    -3650.53300421806762
.    Trial2    0.618034    -3650.53308075330824
. Quadratic    0.530719    -3650.53312065980253    -3650.53312098424249

--------------------------------------------------------------------------------
  Iter                              Commutator    Free_energy(A=E-TS)     DeltaA
#    1                          0.000020261842   -3650.53312065980253  -1.49E-03

Step                       =       0.530719198866
Energy                     =   -3650.533090445495
Entropy (-TS)              =      -0.000030214257
Free energy (A=E-TS)       =   -3650.533120659803
Est. 0K Energy 0.5*(E+A)   =   -3650.533105552649
Residual Non-orthogonality =       0.000000000000
Residual N_electrons       =      -0.000000000051

Spin          Integrated_Ne            Fermi_level     Delta_Fermi_level
   1      2560.000000000253         0.202130375786              1.01E-03

                           Spin 1          
     Orb      H-eigenvalues     Occupancies
       1 |    -0.5234495151    1.0000000000 | 
                          ------
    1276 |     0.1680870155    0.9999785560 | 
    1277 |     0.1685632252    0.9999750763 | 
    1278 |     0.1685705366    0.9999750187 | 
    1279 |     0.1691399912    0.9999700975 | 
    1280 |     0.1696191590    0.9999652130 | 
                 - Gap at zero temperature -
    1281 |     0.2371932973    0.0000155413 | 
    1282 |     0.2372023725    0.0000154968 | 
    1283 |     0.2372590736    0.0000152218 | 
    1284 |     0.2374250732    0.0000144445 | 
    1285 |     0.2374403732    0.0000143749 | 
                          ------
    2560 |     1.0368910109    0.0000000000 | 

                       |  Abs_value |  Threshold | Converged
     Delta_Free_energy |   1.49E-03 |   1.00E-06 |        No
     Delta_Energy      |   1.49E-03 |   1.00E-04 |        No
     Delta_Entropy     |   6.27E-07 |   1.00E-04 |       Yes
     Commutator        |   2.03E-05 |   1.00E-05 |        No
     Delta_Fermi_level |   1.01E-03 |   1.00E-03 |        No

  Line search of the free energy minimum:
  Step_type        Step             Free_energy   Predicted_free_energy
.   Initial    0.000000    -3650.53312065980253
.    Trial1    0.530719    -3650.53312664798841
.    Trial2    0.709969    -3650.53249041435629
. Quadratic    0.266484    -3650.53347768921185    -3650.53347681739251

--------------------------------------------------------------------------------
  Iter                              Commutator    Free_energy(A=E-TS)     DeltaA
#    2                          0.000011959554   -3650.53347768921185  -3.57E-04

Step                       =       0.266484468773
Energy                     =   -3650.533447662223
Entropy (-TS)              =      -0.000030027370
Free energy (A=E-TS)       =   -3650.533477689212
Est. 0K Energy 0.5*(E+A)   =   -3650.533462675718
Residual Non-orthogonality =       0.000000000000
Residual N_electrons       =       0.000000000381

Spin          Integrated_Ne            Fermi_level     Delta_Fermi_level
   1      2559.999999998116         0.202353443057              2.23E-04

                           Spin 1          
     Orb      H-eigenvalues     Occupancies
       1 |    -0.5235134770    1.0000000000 | 
                          ------
    1276 |     0.1682678056    0.9999788404 | 
    1277 |     0.1687820823    0.9999751095 | 
    1278 |     0.1687945397    0.9999750114 | 
    1279 |     0.1693162106    0.9999705366 | 
    1280 |     0.1698385278    0.9999652536 | 
                 - Gap at zero temperature -
    1281 |     0.2374464380    0.0000153944 | 
    1282 |     0.2374607359    0.0000153250 | 
    1283 |     0.2375123181    0.0000150775 | 
    1284 |     0.2376882647    0.0000142626 | 
    1285 |     0.2377033406    0.0000141949 | 
                          ------
    2560 |     1.0372422098    0.0000000000 | 

                       |  Abs_value |  Threshold | Converged
     Delta_Free_energy |   3.57E-04 |   1.00E-06 |        No
     Delta_Energy      |   3.57E-04 |   1.00E-04 |        No
     Delta_Entropy     |   1.87E-07 |   1.00E-04 |       Yes
     Commutator        |   1.20E-05 |   1.00E-05 |        No
     Delta_Fermi_level |   2.23E-04 |   1.00E-03 |       Yes

  Line search of the free energy minimum:
  Step_type        Step             Free_energy   Predicted_free_energy
.   Initial    0.000000    -3650.53347768921185
.    Trial1    0.266484    -3650.53359618925424
.    Trial2    0.546662    -3650.53355982226822
. Quadratic    0.344816    -3650.53360261575881    -3650.53360263731338

--------------------------------------------------------------------------------
  Iter                              Commutator    Free_energy(A=E-TS)     DeltaA
#    3                          0.000008366704   -3650.53360261575881  -1.25E-04

Step                       =       0.344816110555
Energy                     =   -3650.533572758772
Entropy (-TS)              =      -0.000029856878
Free energy (A=E-TS)       =   -3650.533602615759
Est. 0K Energy 0.5*(E+A)   =   -3650.533587687265
Residual Non-orthogonality =       0.000000000000
Residual N_electrons       =      -0.000000000109

Spin          Integrated_Ne            Fermi_level     Delta_Fermi_level
   1      2560.000000000538         0.202565801386              2.12E-04

                           Spin 1          
     Orb      H-eigenvalues     Occupancies
       1 |    -0.5235684845    1.0000000000 | 
                          ------
    1276 |     0.1684558825    0.9999790020 | 
    1277 |     0.1689788971    0.9999752313 | 
    1278 |     0.1689960950    0.9999750965 | 
    1279 |     0.1695016315    0.9999707862 | 
    1280 |     0.1700374087    0.9999654011 | 
                 - Gap at zero temperature -
    1281 |     0.2376784428    0.0000152992 | 
    1282 |     0.2376975465    0.0000152072 | 
    1283 |     0.2377456438    0.0000149780 | 
    1284 |     0.2379255203    0.0000141509 | 
    1285 |     0.2379403954    0.0000140846 | 
                          ------
    2560 |     1.0375915015    0.0000000000 | 

                       |  Abs_value |  Threshold | Converged
     Delta_Free_energy |   1.25E-04 |   1.00E-06 |        No
     Delta_Energy      |   1.25E-04 |   1.00E-04 |        No
     Delta_Entropy     |   1.70E-07 |   1.00E-04 |       Yes
     Commutator        |   8.37E-06 |   1.00E-05 |       Yes
     Delta_Fermi_level |   2.12E-04 |   1.00E-03 |       Yes

  Line search of the free energy minimum:
  Step_type        Step             Free_energy   Predicted_free_energy
.   Initial    0.000000    -3650.53360261575881
.    Trial1    0.344816    -3650.53365394735010
.    Trial2    0.595074    -3650.53357192718022
. Quadratic    0.265342    -3650.53365901983261    -3650.53365900605013

--------------------------------------------------------------------------------
  Iter                              Commutator    Free_energy(A=E-TS)     DeltaA
#    4                          0.000005649273   -3650.53365901983261  -5.64E-05

Step                       =       0.265342335412
Energy                     =   -3650.533629245982
[...]
 C   275 -- C   555       -0.10      5.37000
 C   274 -- C   554       -0.10      5.37000
 C   273 -- C   553       -0.10      5.37000
 C   272 -- C   552       -0.10      5.37000
 C   271 -- C   551       -0.10      5.37000
 C   270 -- C   550       -0.10      5.37000
 C   269 -- C   549       -0.10      5.37000
 C   268 -- C   548       -0.10      5.37000
 C   267 -- C   547       -0.10      5.37000
 C   266 -- C   546       -0.10      5.37000
 C   130 -- C   465       -0.10      5.37000
 C   129 -- C   464       -0.10      5.37000
 C   128 -- C   463       -0.10      5.37000
 C   127 -- C   462       -0.10      5.37000
 C   126 -- C   461       -0.10      5.37000
 C   240 -- C   525       -0.10      5.37000
 C   239 -- C   524       -0.10      5.37000
 C   238 -- C   523       -0.10      5.37000
 C   237 -- C   522       -0.10      5.37000
 C   236 -- C   521       -0.10      5.37000
 C    23 -- C   478       -0.10      5.37202
 C    49 -- C   469       -0.10      5.37202
 C    48 -- C   468       -0.10      5.37202
 C    47 -- C   467       -0.10      5.37202
 C    22 -- C   477       -0.10      5.37202
 C    46 -- C   466       -0.10      5.37202
 C    21 -- C   476       -0.10      5.37202
 C    25 -- C   480       -0.10      5.37202
 C    24 -- C   479       -0.10      5.37202
 C    50 -- C   470       -0.10      5.37202
 C    24 -- C   449       -0.10      5.37202
 C     6 -- C   416       -0.10      5.37202
 C    23 -- C   448       -0.10      5.37202
 C    22 -- C   447       -0.10      5.37202
 C    10 -- C   470       -0.10      5.37202
 C     5 -- C   450       -0.10      5.37202
 C    21 -- C   446       -0.10      5.37202
 C    10 -- C   420       -0.10      5.37202
 C     9 -- C   469       -0.10      5.37202
 C     9 -- C   419       -0.10      5.37202
 C     8 -- C   468       -0.10      5.37202
 C     4 -- C   449       -0.10      5.37202
 C     8 -- C   418       -0.10      5.37202
 C   285 -- C   580       -0.10      5.37202
 C   284 -- C   579       -0.10      5.37202
 C   283 -- C   578       -0.10      5.37202
 C   282 -- C   577       -0.10      5.37202
 C   281 -- C   576       -0.10      5.37202
 C     2 -- C   447       -0.10      5.37202
 C     7 -- C   467       -0.10      5.37202
 C   260 -- C   605       -0.10      5.37202
 C   259 -- C   604       -0.10      5.37202
 C   258 -- C   603       -0.10      5.37202
 C   257 -- C   602       -0.10      5.37202
 C   256 -- C   601       -0.10      5.37202
 C     7 -- C   417       -0.10      5.37202
 C     1 -- C   446       -0.10      5.37202
 C     6 -- C   466       -0.10      5.37202
 C    25 -- C   450       -0.10      5.37202
 C     3 -- C   448       -0.10      5.37202
 C   219 -- C   569       -0.10      5.37202
 C   218 -- C   568       -0.10      5.37202
 C   217 -- C   567       -0.10      5.37202
 C   216 -- C   566       -0.10      5.37202
 C   250 -- C   540       -0.10      5.37202
 C   249 -- C   539       -0.10      5.37202
 C   248 -- C   538       -0.10      5.37202
 C   247 -- C   537       -0.10      5.37202
 C   246 -- C   536       -0.10      5.37202
 C   220 -- C   570       -0.10      5.37202
 C   205 -- C   550       -0.10      5.37202
 C   204 -- C   549       -0.10      5.37202
 C   203 -- C   548       -0.10      5.37202
 C   202 -- C   547       -0.10      5.37202
 C   201 -- C   546       -0.10      5.37202
 C    95 -- C   365       -0.10      5.37202
 C    94 -- C   364       -0.10      5.37202
 C    93 -- C   363       -0.10      5.37202
 C    92 -- C   362       -0.10      5.37202
 C    91 -- C   361       -0.10      5.37202
 C    65 -- C   395       -0.10      5.37202
 C    64 -- C   394       -0.10      5.37202
 C    63 -- C   393       -0.10      5.37202
 C    30 -- C   355       -0.10      5.37202
 C    62 -- C   392       -0.10      5.37202
 C    61 -- C   391       -0.10      5.37202
 C    29 -- C   354       -0.10      5.37202
 C   260 -- C   550       -0.10      5.37202
 C   259 -- C   549       -0.10      5.37202
 C    28 -- C   353       -0.10      5.37202
 C   258 -- C   548       -0.10      5.37202
 C   257 -- C   547       -0.10      5.37202
 C   256 -- C   546       -0.10      5.37202
 C    27 -- C   352       -0.10      5.37202
 C    26 -- C   351       -0.10      5.37202
 C    55 -- C   335       -0.10      5.37202
 C    54 -- C   334       -0.10      5.37202
 C    53 -- C   333       -0.10      5.37202
 C   230 -- C   580       -0.10      5.37202
 C   230 -- C   525       -0.10      5.37202
 C   229 -- C   579       -0.10      5.37202
 C   229 -- C   524       -0.10      5.37202
 C   228 -- C   578       -0.10      5.37202
 C    52 -- C   332       -0.10      5.37202
 C   228 -- C   523       -0.10      5.37202
 C   227 -- C   577       -0.10      5.37202
 C   227 -- C   522       -0.10      5.37202
 C   226 -- C   576       -0.10      5.37202
 C   226 -- C   521       -0.10      5.37202
 C    51 -- C   331       -0.10      5.37202
 C   220 -- C   515       -0.10      5.37202
 C   219 -- C   514       -0.10      5.37202
 C   218 -- C   513       -0.10      5.37202
 C   217 -- C   512       -0.10      5.37202
 C   216 -- C   511       -0.10      5.37202
 C   195 -- C   540       -0.10      5.37202
 C   195 -- C   500       -0.10      5.37202
 C   194 -- C   539       -0.10      5.37202
 C   194 -- C   499       -0.10      5.37202
 C   193 -- C   538       -0.10      5.37202
 C   193 -- C   498       -0.10      5.37202
 C   192 -- C   537       -0.10      5.37202
 C   192 -- C   497       -0.10      5.37202
 C   191 -- C   536       -0.10      5.37202
 C   191 -- C   496       -0.10      5.37202
 C   180 -- C   515       -0.10      5.37202
 C   179 -- C   514       -0.10      5.37202
 C   178 -- C   513       -0.10      5.37202
 C   177 -- C   512       -0.10      5.37202
 C   176 -- C   511       -0.10      5.37202
 C   150 -- C   440       -0.10      5.37202
 C   149 -- C   439       -0.10      5.37202
 C   148 -- C   438       -0.10      5.37202
 C   147 -- C   437       -0.10      5.37202
 C   146 -- C   436       -0.10      5.37202
 C   135 -- C   460       -0.10      5.37202
 C   134 -- C   459       -0.10      5.37202
 C   133 -- C   458       -0.10      5.37202
 C   132 -- C   457       -0.10      5.37202
 C   131 -- C   456       -0.10      5.37202
 C    11 -- C   331       -0.10      5.37202
 C    95 -- C   425       -0.10      5.37202
 C    94 -- C   424       -0.10      5.37202
 C    93 -- C   423       -0.10      5.37202
 C    92 -- C   422       -0.10      5.37202
 C    91 -- C   421       -0.10      5.37202
 C    85 -- C   355       -0.10      5.37202
 C    40 -- C   365       -0.10      5.37202
 C    84 -- C   354       -0.10      5.37202
 C    83 -- C   353       -0.10      5.37202
 C    82 -- C   352       -0.10      5.37202
 C    39 -- C   364       -0.10      5.37202
 C    81 -- C   351       -0.10      5.37202
 C    38 -- C   363       -0.10      5.37202
 C    37 -- C   362       -0.10      5.37202
 C    36 -- C   361       -0.10      5.37202
 C    15 -- C   335       -0.10      5.37202
 C    65 -- C   345       -0.10      5.37202
 C    64 -- C   344       -0.10      5.37202
 C    63 -- C   343       -0.10      5.37202
 C    30 -- C   325       -0.10      5.37202
 C    62 -- C   342       -0.10      5.37202
 C    14 -- C   334       -0.10      5.37202
 C    61 -- C   341       -0.10      5.37202
 C    29 -- C   324       -0.10      5.37202
 C    28 -- C   323       -0.10      5.37202
 C    13 -- C   333       -0.10      5.37202
 C    27 -- C   322       -0.10      5.37202
 C   120 -- C   395       -0.10      5.37202
 C    55 -- C   385       -0.10      5.37202
 C   119 -- C   394       -0.10      5.37202
 C   118 -- C   393       -0.10      5.37202
 C   117 -- C   392       -0.10      5.37202
 C    54 -- C   384       -0.10      5.37202
 C    26 -- C   321       -0.10      5.37202
 C   116 -- C   391       -0.10      5.37202
 C    53 -- C   383       -0.10      5.37202
 C    12 -- C   332       -0.10      5.37202
 C    52 -- C   382       -0.10      5.37202
 C    51 -- C   381       -0.10      5.37202
 C   106 -- C   436       -0.10      5.37202
 C   106 -- C   376       -0.10      5.37202
 C    80 -- C   410       -0.10      5.37202
 C    79 -- C   409       -0.10      5.37202
 C    78 -- C   408       -0.10      5.37202
 C    77 -- C   407       -0.10      5.37202
 C    76 -- C   406       -0.10      5.37202
 C   135 -- C   410       -0.10      5.37202
 C   134 -- C   409       -0.10      5.37202
 C   133 -- C   408       -0.10      5.37202
 C   132 -- C   407       -0.10      5.37202
 C   131 -- C   406       -0.10      5.37202
 C   110 -- C   440       -0.10      5.37202
 C   110 -- C   380       -0.10      5.37202
 C   109 -- C   439       -0.10      5.37202
 C   109 -- C   379       -0.10      5.37202
 C   108 -- C   438       -0.10      5.37202
 C   108 -- C   378       -0.10      5.37202
 C   107 -- C   437       -0.10      5.37202
 C   107 -- C   377       -0.10      5.37202
 C   215 -- C   635       -0.10      5.38000
 C   214 -- C   634       -0.10      5.38000
 C   213 -- C   633       -0.10      5.38000
 C   212 -- C   632       -0.10      5.38000
 C   211 -- C   631       -0.10      5.38000
 C   190 -- C   620       -0.10      5.38000
 C   189 -- C   619       -0.10      5.38000
 C   188 -- C   618       -0.10      5.38000
 C   187 -- C   617       -0.10      5.38000
 C   186 -- C   616       -0.10      5.38000
 C   175 -- C   595       -0.10      5.38000
 C   174 -- C   594       -0.10      5.38000
 C   173 -- C   593       -0.10      5.38000
 C   172 -- C   592       -0.10      5.38000
 C   171 -- C   591       -0.10      5.38000
 C   245 -- C   640       -0.10      5.38000
 C   244 -- C   639       -0.10      5.38000
 C   243 -- C   638       -0.10      5.38000
 C   242 -- C   637       -0.10      5.38000
 C   241 -- C   636       -0.10      5.38000
==================================================


=================== Orbital energy and occupancy information ===================

      Total number of orbitals:    2560
        Occupancy sum (kernel):    1280.000000000
   Occupancy sum (eigenvalues):    1280.000000000
                 HOMO-LUMO gap:       0.063954780 Eh
                 Mid-gap level:       0.250294671 Eh

                        Orbital | Energy (Eh) | Occupancy
                            1    -0.473880523   1.0000000
                        .......   ...........   .........
                         1271     0.212908705   0.9999889
                         1272     0.212915385   0.9999889
                         1273     0.213380497   0.9999871
                         1274     0.213387163   0.9999871
                         1275     0.216850302   0.9999615
                         1276     0.216852807   0.9999615
                         1277     0.217310794   0.9999555
                         1278     0.217313321   0.9999555
                         1279     0.217865662   0.9999470
                         1280     0.218317281   0.9999388
                        ....... -- gap at 0K -- .........
                         1281     0.282272061   0.0000277
                         1282     0.282279263   0.0000276
                         1283     0.282523824   0.0000255
                         1284     0.282531069   0.0000255
                         1285     0.282894344   0.0000228
                         1286     0.282898939   0.0000227
                         1287     0.283160117   0.0000209
                         1288     0.283164914   0.0000209
                         1289     0.283365565   0.0000196
                         1290     0.283560409   0.0000184
                        .......   ...........   .........
                         2560     1.141833012   0.0000000

================================================================================

===================== Writing canonical molecular orbitals =====================
| Orbital  Energy (eV)  Norm     |
| HOMO      5.94071551  1.000000 | Writing "3.4344936_GO_manual_4x64graphite_HOMO.cube" ... done
Writing "3.4344936_GO_manual_4x64graphite_HOMO.dx" ... done
| LUMO      7.68101362  1.000000 | Writing "3.4344936_GO_manual_4x64graphite_LUMO.cube" ... done
Writing "3.4344936_GO_manual_4x64graphite_LUMO.dx" ... done
================================================================================
 
===================== Density of States (DOS) calculation ======================
Writing "3.4344936_GO_manual_4x64graphite_DOS.txt" ...  done
================================================================================
 
Writing bands to file "3.4344936_GO_manual_4x64graphite.val_bands" ... done
 
================ Projected Density of States (pDOS) calculation ================
 
Constructing AM resolved functions  ...... done
Writing NGWF plot files in formats: CUBE DX ...  done
 
Performing overlap integrals ...  done
 
Computing pDOS weights ...  done
 
All bands spilling parameter =   3.70 %
Occupancy-weighted spilling parameter =   0.88 %
 
 => Outputting data for OptaDOS <=
 
Writing pDOS weights to file "3.4344936_GO_manual_4x64graphite.val_pdos_bin" ... done
 
Writing band gradients to file "3.4344936_GO_manual_4x64graphite.val_dome_bin" ... done
 
Writing Castep output cell file to "3.4344936_GO_manual_4x64graphite-out.cell" ... done
 
 => Computing Gaussian smeared pDOS <= 
Writing "3.4344936_GO_manual_4x64graphite_PDOS.txt" ...  done
 
 => Computing Occupancy-weighted Gaussian smeared pDOS <= 
Writing "3.4344936_GO_manual_4x64graphite_occ_PDOS.txt" ...  done
  => Band centres: 
 S band centre of group 1:  -13.838983 eV
 P band centre of group 1:   -6.723907 eV
  Band centres done. <=
  => Integrated number of electrons in each AM band: 
 S num electrons of group 1:  575.596995
 P num electrons of group 1: 1961.763721
  Integrated number of electrons done. <=
================================================================================

------------------------------ TIMING INFORMATION ------------------------------
AVERAGE TIME:    3874.349s on     40 node(s)                                    
TOTAL TIME:      3874.349s on     40 node(s)                                    
================= AVERAGE TIMINGS FROM ALL NODES (CUMULATIVE) ==================
|| TAG                                    #calls    cpu time   %total  Gflops ||
|| work_imbalance                       :     1        0.00s   0.000%  ------ ||
|| paw_tcore_hartree_on_grid            :     1        0.00s   0.000%  ------ ||
|| paw_tcore_density                    :     1        0.01s   0.000%  ------ ||
|| paw_sphere_density_on_grid           :     1        0.01s   0.000%  ------ ||
|| sparse_set_to_garbage                :   171        0.03s   0.001%  ------ ||
|| paw_dij_hartree                      :   336        0.04s   0.001%  ------ ||
|| pseudo_make_structure_factor         :     1        0.05s   0.001%  ------ ||
|| basis_extract_function_from_box      :  1920        0.08s   0.002%  ------ ||
|| paw_species_calc_proj_prec_mat       :     1        0.12s   0.003%  ------ ||
|| paw_dataset_init                     :     1        0.15s   0.004%  ------ ||
|| density_init_guess_real              :     1        0.18s   0.005%  ------ ||
|| ngwfs_initialise_from_radial         :     2        0.67s   0.017%  ------ ||
|| sparse_init                          :     1        0.92s   0.024%  ------ ||
|| dense_normal_eigensolve              :     1        1.10s   0.028%  ------ ||
|| restart_kernel_write                 :    16        1.19s   0.031%  ------ ||
|| hartree_on_grid                      :   252        1.32s   0.034%  ------ ||
|| ewald_calculate_energy               :     1        2.62s   0.068%  ------ ||
|| projectors_init_fftbox_recip         :   151        2.92s   0.075%  ------ ||
|| fourier_apply_box_pair               :  2848        4.71s   0.122% 561.028 ||
|| basis_copy_function_to_box           : 24000        5.19s   0.134%  ------ ||
|| augmentation_screen_dij              :   257        5.56s   0.143%  ------ ||
|| sw_init                              :     1        6.73s   0.174%  ------ ||
|| sparse_embed_hotelling_invert_embed  :    29        8.07s   0.208%  ------ ||
|| ngwf_gradient_coeffs                 :    15       10.42s   0.269%  ------ ||
|| cell_grid_extract_box_real           : 10076       14.14s   0.365%  ------ ||
|| fourier_apply_cell_backward          :  7783       14.70s   0.379%  63.741 ||
|| fourier_apply_cell_forward           :  7280       16.97s   0.438%  51.646 ||
|| sparse_trace                         :  3036       17.90s   0.462%  ------ ||
|| cell_grid_deposit_box_real           : 32432       22.06s   0.569%  ------ ||
|| paw_dij_xc                           :   336       22.44s   0.579%  ------ ||
|| aug_nonlocal_mat                     :   321       32.72s   0.844%  ------ ||
|| augmentation_density_on_grid         :   252       43.03s   1.111%  ------ ||
|| density_fftbox_deposit_to_cell       : 16128       44.87s   1.158%  ------ ||
|| hamiltonian_energy_components        :     3       49.19s   1.270%  ------ ||
|| eigenstates_pdos                     :     1       50.64s   1.307%  ------ ||
|| eigenstates_calculate                :     1       54.57s   1.409%  ------ ||
|| function_ops_brappd_ketppd           :    60       59.86s   1.545%  ------ ||
|| nlxc_vdw_energy                      :   502       66.76s   1.723%  ------ ||
|| projectors_func_ovlp_box             :    30       67.31s   1.737%  ------ ||
|| xc_energy_potential                  :   251       73.69s   1.902%  ------ ||
|| properties_calculate                 :     1       97.01s   2.504%  ------ ||
|| integrals_kinetic                    :    29      101.02s   2.607%  ------ ||
|| dense_eigensolve                     :   219      112.99s   2.916%  ------ ||
|| sparse_product                       :  3102      121.08s   3.125%  ------ ||
|| potential_apply_to_ngwf_batch        :   312      123.39s   3.185%  ------ ||
|| restart_ngwfs_tightbox_output        :    14      199.45s   5.148%  ------ ||
|| basis_dot_function_with_box          : 7.924M     217.41s   5.612%  ------ ||
|| fourier_apply_box                    : 75904      234.82s   6.061% 978.638 ||
|| edft_diag_ngwf_ham                   :   218      247.55s   6.389%  ------ ||
|| projectors_gradient_batch            :    60      271.46s   7.007%  ------ ||
|| integrals_locpot_mat_els_batch       :   312      283.06s   7.306%  ------ ||
|| density_fftbox_interpolate_multiply  : 16128      312.78s   8.073%  ------ ||
|| projectors_grad_precond_batch        :    60      374.42s   9.664%  ------ ||
|| density_batch_interp_deposit         :  1008      398.19s  10.278%  ------ ||
|| integrals_locpot_dbl_grid            :    78      408.14s  10.534%  ------ ||
|| edft_apply_smearing_operator         :   218      479.29s  12.371%  ------ ||
|| basis_add_function_to_box            : 22.68M     605.22s  15.621%  ------ ||
|| ngwf_gradient_build_batch            :    60      691.38s  17.845%  ------ ||
|| density_batch_row_sums               :  1008      827.96s  21.370%  ------ ||
|| ngwf_gradient_batch                  :    60      931.17s  24.034%  ------ ||
|| ngwf_gradient_lnv                    :    15      964.15s  24.885%  ------ ||
|| density_on_dbl_grid                  :   252     1239.70s  31.998%  ------ ||
|| hamiltonian_lhxc_calculate           :   247     1334.13s  34.435%  ------ ||
|| edft_calculate                       :    15     2198.78s  56.752%  ------ ||
|| ngwf_cg_optimise                     :     1     3752.51s  96.855%  ------ ||
|| total_time                           :     1     3874.35s 100.000%  ------ ||
================================================================================
Overhead of generating timer report: 
- 0 ms averaging over threads,
- 5 ms ensuring consistency across MPI ranks,
- 0 ms printing in order.

Job completed: 24-02-2020 23:26 (-0000)

