 +---------------------------------------------------------------+
 |                                                               |
 |        ####### #     # ####### ####### ####### ######         |
 |        #     # ##    # #          #    #       #     #        |
 |        #     # # #   # #          #    #       #     #        |
 |        #     # #  #  # #####      #    #####   ######         |
 |        #     # #   # # #          #    #       #              |
 |        #     # #    ## #          #    #       #              |
 |        ####### #     # #######    #    ####### #              |
 |                                                               |
 |        Linear-Scaling Ab Initio Total Energy Program          |
 |                                                               |
 |          Release for academic collaborators of ODG            |
 |                                             Version 5.3.2.12  |
 |                                                               |
 +---------------------------------------------------------------+
 |                                                               |
 |  Authors:                                                     |
 |  Jacek Dziedzic, Peter D. Haynes, Nicholas D. M. Hine,        |
 |  Arash. A. Mostofi, Mike C. Payne and Chris-Kriton Skylaris   |
 |                                                               |
 |  Contributors:                                                |
 |  J. Aarons, L. Andrinopoulos, P. W. Avraam, R. A. Bell,       |
 |  A. Bhandari, G. A. Bramley, R. J. Charlton, S. J. Clark,     |
 |  R. J. Clements, G. C. Constantinescu, F. Corsetti,           |
 |  N. Corsini, O. Dieguez, S. M. M. Dubois, K. K. B. Duff,      |
 |  J. M. Escartin, A. Greco, H. Helal, Q. O. Hill, L. P. Lee,   |
 |  J.-H. Li, E. B. Linscott, G. Moynihan, D. D. O`Regan,        |
 |  O. K. Okan, M. J. S. Phipps, C. J. Pickard,                  |
 |  J. C. A. Prentice, M. I. J. Probert, L. E. Ratcliff,         |
 |  M. Robinson, A. Ruiz Serrano, J. S. Spencer, E. W. Tait,     |
 |  G. Teobaldi, D. Turban, V. Vitale, K. A. Wilkinson,          |
 |  C. Weber, J. C. Womack, N. Yeung and T. J. Zuehlsdorff       |
 |                                                               |
 |                                   Copyright (c) 2004-2020     |
 |                                                               |
 |  Please cite:                                                 |
 |  "Introducing ONETEP: Linear-scaling density functional       |
 |   simulations on parallel computers".                         |
 |   C.-K. Skylaris, P. D. Haynes, A. A. Mostofi, M. C. Payne.   |
 |   J. Chem. Phys. 122 084119 (2005).                           |
 |                                                               |
 |          in all publications arising from your use of ONETEP. |
 |                                                               |
 +---------------------------------------------------------------+
 |                                                               |
 |   ONETEP is based on developments described in the following  |
 |   publications:                                               |
 |                                                               |
 |  "Nonorthogonal generalized Wannier function pseudopotential  |
 |   plane-wave method".                                         |
 |   C.-K. Skylaris, A. A. Mostofi, P. D. Haynes, O. Dieguez,    |
 |   M. C. Payne.                                                |
 |   Phys. Rev. B 66 035119 (2002).                              |
 |                                                               |
 |  "Preconditioned iterative minimization for linear-scaling    |
 |   electronic structure calculations".                         |
 |   A. A. Mostofi, P. D. Haynes, C.-K. Skylaris, M. C. Payne.   |
 |   J. Chem. Phys. 119(17), pp.8842-8848 (2003).                |
 |                                                               |
 |  "Total-energy calculations on a real space grid with         |
 |   localized functions and a plane-wave basis".                |
 |   A. A. Mostofi, C.-K. Skylaris, P. D. Haynes, M. C. Payne.   |
 |   Comput. Phys. Commun. 147, pp.788-802 (2002).               |
 |                                                               |
 |  "Accurate kinetic energy evaluation in electronic structure  |
 |   calculations with localized functions on real space grids"  |
 |   C.-K. Skylaris, A. A. Mostofi, P. D. Haynes, C. J. Pickard, |
 |   M. C. Payne.                                                |
 |   Comput. Phys. Commun. 140, pp.315-322 (2001).               |
 |                                                               |
 |  "Accurate ionic forces and geometry optimization in linear-  |
 |   scaling density-functional theory with local orbitals"      |
 |   N. D. M. Hine, M. Robinson, P. D. Haynes, C.-K. Skylaris,   |
 |   M. C. Payne, and A. A. Mostofi.                             |
 |   Phys. Rev. B 83 195102 (2011).                              |
 |                                                               |
 +---------------------------------------------------------------+

Job started: 24-02-2020 23:17 (-0000)
 
Reading parameters from file "3.5686496_GO_manual_4x64graphite.dat" ...

WARNING: "cutoff_energy" not specified, but "psinc_spacing" specified.
         Using the latter to set the KE cutoff energy to  732.32021eV,
         thus *overriding* the default.

... done

If your calculation crashes here, before "Checking processes and threads..."
is displayed, then your stack size is insufficient.
If so, use "ulimit -s unlimited" at runtime.
You can disable this check with "check_stack_size F".

Checking processes and threads...
   Determining the default number of threads...
      No default threads set at compilation time: defaulting to 1.
      OpenMP library call suggests 4 threads.
      Hybrid MPI-OpenMP compilation detected.
      Number of MPI processes > 1.
      OMP_NUM_THREADS environment variable present and
      its value matches the one obtained from the OpenMP library call.
      Using this value as default.
      Default threads: 4
      Default applies to threads_max and threads_num_fftboxes.
      Settings in the input file override this default.
   ... done

   Running with 40 MPI processes.
   There are 10 MPI processes running on the same node as the root process.
   Each MPI process is using: 
               1 threads for simulation cell FFTs.
               1 threads for parallel FFT box operations.
               4 threads for loops over batched FFT box operations.
               4 threads in other parallel regions.
... done

Basic input checks...
Resetting ngwf_cg_rotate to TRUE for EDFT calculations
... done

Reading geometry and species blocks from file "3.5686496_GO_manual_4x64graphite.dat" ...
    
  PSINC grid spacing along a1 set to   0.511215680000a0 from input file.
  PSINC grid spacing along a2 set to   0.531284090000a0 from input file.
  PSINC grid spacing along a3 set to   0.507051440000a0 from input file.
  Number of PPD points along a3 set to 1.  This is 
  the default value, it may have been provided also in the input file.
... done
 Writing xyz coordinates to file "3.5686496_GO_manual_4x64graphite.xyz" ... done


--------------------------------------------------------------------------------
---------------------------------- INPUT FILE ----------------------------------
--------------------------------------------------------------------------------

task : singlepoint                                                              
do_properties : true                                                            
dx_format T                                                                     
edft T                                                                          
output_detail VERBOSE                                                           
write_xyz T                                                                     
xc_functional OPTPBE                                                            
PSINC_SPACING 0.51121568 0.53128409 0.50705144                                  
paw T                                                                           
pdos_max_l = 2                                                                  
dos_smear  0.1 eV                                                               
popn_calculate T                                                                
PDOS_PSEUDOATOMIC T                                                             
PDOS_REDUCE_SWS F                                                               
PDOS_CONSTRUCT_BASIS F                                                          
PDOS_LOWDIN T                                                                   
PDOS_ORTH_ATOM_BLOCKS F                                                         
PDOS_LCAO_OPTIMIZE F                                                            
pdos_optados_output T                                                           
homo_plot 0                                                                     
lumo_plot 0                                                                     
homo_dens_plot -1                                                               
lumo_dens_plot -1                                                               
%BLOCK SPECIES                                                                  
C C 6 4 9.0                                                                     
%ENDBLOCK SPECIES                                                               
%BLOCK SPECIES_POT                                                              
C "~/pp/paw/c_pbe_abinit.paw"                                                   
%ENDBLOCK SPECIES_POT                                                           
%BLOCK SPECIES_ATOMIC_SET                                                       
C "SOLVE conf=2s2 2p2"                                                          
%ENDBLOCK SPECIES_ATOMIC_SET                                                    
%BLOCK LATTICE_CART                                                             
32.21  0.00  0.00                                                               
0.00 18.59  0.00                                                                
0.00  0.00 67.44                                                                
%ENDBLOCK LATTICE_CART                                                          
%BLOCK POSITIONS_ABS                                                            
C  0.00  0.00  3.37                                                             
C  0.00  0.00 16.86                                                             
C  0.00  0.00 30.35                                                             
C  0.00  0.00 43.83                                                             
C  0.00  0.00 57.32                                                             
C  0.00  4.65  3.37                                                             
C  0.00  4.65 16.86                                                             
C  0.00  4.65 30.35                                                             
C  0.00  4.65 43.83                                                             
C  0.00  4.65 57.32                                                             
C  4.03  2.32  3.37                                                             
C  4.03  2.32 16.86                                                             
C  4.03  2.32 30.35                                                             
C  4.03  2.32 43.83                                                             
C  4.03  2.32 57.32                                                             
C  8.05  0.00  3.37                                                             
C  8.05  0.00 16.86                                                             
C  8.05  0.00 30.35                                                             
C  8.05  0.00 43.83                                                             
C  8.05  0.00 57.32                                                             
C  0.00  9.30  3.37                                                             
C  0.00  9.30 16.86                                                             
C  0.00  9.30 30.35                                                             
C  0.00  9.30 43.83                                                             
C  0.00  9.30 57.32                                                             
C  4.03  6.97  3.37                                                             
C  4.03  6.97 16.86                                                             
C  4.03  6.97 30.35                                                             
C  4.03  6.97 43.83                                                             
C  4.03  6.97 57.32                                                             
C  8.05  4.65  3.37                                                             
C  8.05  4.65 16.86                                                             
C  8.05  4.65 30.35                                                             
C  8.05  4.65 43.83                                                             
C  8.05  4.65 57.32                                                             
C 12.08  2.32  3.37                                                             
C 12.08  2.32 16.86                                                             
C 12.08  2.32 30.35                                                             
C 12.08  2.32 43.83                                                             
C 12.08  2.32 57.32                                                             
C 16.10  0.00  3.37                                                             
C 16.10  0.00 16.86                                                             
C 16.10  0.00 30.35                                                             
C 16.10  0.00 43.83                                                             
C 16.10  0.00 57.32                                                             
C  0.00 13.95  3.37                                                             
C  0.00 13.95 16.86                                                             
C  0.00 13.95 30.35                                                             
C  0.00 13.95 43.83                                                             
C  0.00 13.95 57.32                                                             
C  4.03 11.62  3.37                                                             
C  4.03 11.62 16.86                                                             
C  4.03 11.62 30.35                                                             
C  4.03 11.62 43.83                                                             
C  4.03 11.62 57.32                                                             
C  8.05  9.30  3.37                                                             
C  8.05  9.30 16.86                                                             
C  8.05  9.30 30.35                                                             
C  8.05  9.30 43.83                                                             
C  8.05  9.30 57.32                                                             
C 12.08  6.97  3.37                                                             
C 12.08  6.97 16.86                                                             
C 12.08  6.97 30.35                                                             
C 12.08  6.97 43.83                                                             
C 12.08  6.97 57.32                                                             
C 16.10  4.65  3.37                                                             
C 16.10  4.65 16.86                                                             
C 16.10  4.65 30.35                                                             
C 16.10  4.65 43.83                                                             
C 16.10  4.65 57.32                                                             
C 20.13  2.32  3.37                                                             
C 20.13  2.32 16.86                                                             
C 20.13  2.32 30.35                                                             
C 20.13  2.32 43.83                                                             
C 20.13  2.32 57.32                                                             
C 24.16  0.00  3.37                                                             
C 24.16  0.00 16.86                                                             
C 24.16  0.00 30.35                                                             
C 24.16  0.00 43.83                                                             
C 24.16  0.00 57.32                                                             
C  4.03 16.27  3.37                                                             
C  4.03 16.27 16.86                                                             
C  4.03 16.27 30.35                                                             
C  4.03 16.27 43.83                                                             
C  4.03 16.27 57.32                                                             
C  8.05 13.95  3.37                                                             
C  8.05 13.95 16.86                                                             
C  8.05 13.95 30.35                                                             
C  8.05 13.95 43.83                                                             
C  8.05 13.95 57.32                                                             
C 12.08 11.62  3.37                                                             
C 12.08 11.62 16.86                                                             
C 12.08 11.62 30.35                                                             
C 12.08 11.62 43.83                                                             
C 12.08 11.62 57.32                                                             
C 16.10  9.30  3.37                                                             
C 16.10  9.30 16.86                                                             
C 16.10  9.30 30.35                                                             
C 16.10  9.30 43.83                                                             
C 16.10  9.30 57.32                                                             
C 20.13  6.97  3.37                                                             
C 20.13  6.97 16.86                                                             
C 20.13  6.97 30.35                                                             
C 20.13  6.97 43.83                                                             
C 20.13  6.97 57.32                                                             
C 24.16  4.65  3.37                                                             
C 24.16  4.65 16.86                                                             
C 24.16  4.65 30.35                                                             
C 24.16  4.65 43.83                                                             
C 24.16  4.65 57.32                                                             
C 28.18  2.32  3.37                                                             
C 28.18  2.32 16.86                                                             
C 28.18  2.32 30.35                                                             
C 28.18  2.32 43.83                                                             
C 28.18  2.32 57.32                                                             
C 12.08 16.27  3.37                                                             
C 12.08 16.27 16.86                                                             
C 12.08 16.27 30.35                                                             
C 12.08 16.27 43.83                                                             
C 12.08 16.27 57.32                                                             
C 16.10 13.95  3.37                                                             
C 16.10 13.95 16.86                                                             
C 16.10 13.95 30.35                                                             
C 16.10 13.95 43.83                                                             
C 16.10 13.95 57.32                                                             
C 20.13 11.62  3.37                                                             
C 20.13 11.62 16.86                                                             
C 20.13 11.62 30.35                                                             
C 20.13 11.62 43.83                                                             
C 20.13 11.62 57.32                                                             
C 24.16  9.30  3.37                                                             
C 24.16  9.30 16.86                                                             
C 24.16  9.30 30.35                                                             
C 24.16  9.30 43.83                                                             
C 24.16  9.30 57.32                                                             
C 28.18  6.97  3.37                                                             
C 28.18  6.97 16.86                                                             
C 28.18  6.97 30.35                                                             
C 28.18  6.97 43.83                                                             
C 28.18  6.97 57.32                                                             
C 20.13 16.27  3.37                                                             
C 20.13 16.27 16.86                                                             
C 20.13 16.27 30.35                                                             
C 20.13 16.27 43.83                                                             
C 20.13 16.27 57.32                                                             
C 24.16 13.95  3.37                                                             
C 24.16 13.95 16.86                                                             
C 24.16 13.95 30.35                                                             
C 24.16 13.95 43.83                                                             
C 24.16 13.95 57.32                                                             
C 28.18 11.62  3.37                                                             
C 28.18 11.62 16.86                                                             
C 28.18 11.62 30.35                                                             
C 28.18 11.62 43.83                                                             
C 28.18 11.62 57.32                                                             
C 28.18 16.27  3.37                                                             
C 28.18 16.27 16.86                                                             
C 28.18 16.27 30.35                                                             
C 28.18 16.27 43.83                                                             
C 28.18 16.27 57.32                                                             
C  0.00  0.00 10.12                                                             
C  0.00  0.00 23.60                                                             
C  0.00  0.00 37.09                                                             
C  0.00  0.00 50.58                                                             
C  0.00  0.00 64.07                                                             
C  0.00  4.65 10.12                                                             
C  0.00  4.65 23.60                                                             
C  0.00  4.65 37.09                                                             
C  0.00  4.65 50.58                                                             
C  0.00  4.65 64.07                                                             
C  4.03  2.32 10.12                                                             
C  4.03  2.32 23.60                                                             
C  4.03  2.32 37.09                                                             
C  4.03  2.32 50.58                                                             
C  4.03  2.32 64.07                                                             
C  8.05  0.00 10.12                                                             
C  8.05  0.00 23.60                                                             
C  8.05  0.00 37.09                                                             
C  8.05  0.00 50.58                                                             
C  8.05  0.00 64.07                                                             
C  0.00  9.30 10.12                                                             
C  0.00  9.30 23.60                                                             
C  0.00  9.30 37.09                                                             
C  0.00  9.30 50.58                                                             
C  0.00  9.30 64.07                                                             
C  4.03  6.97 10.12                                                             
C  4.03  6.97 23.60                                                             
C  4.03  6.97 37.09                                                             
C  4.03  6.97 50.58                                                             
C  4.03  6.97 64.07                                                             
C  8.05  4.65 10.12                                                             
C  8.05  4.65 23.60                                                             
C  8.05  4.65 37.09                                                             
C  8.05  4.65 50.58                                                             
C  8.05  4.65 64.07                                                             
C 12.08  2.32 10.12                                                             
C 12.08  2.32 23.60                                                             
C 12.08  2.32 37.09                                                             
C 12.08  2.32 50.58                                                             
C 12.08  2.32 64.07                                                             
C 16.10  0.00 10.12                                                             
C 16.10  0.00 23.60                                                             
C 16.10  0.00 37.09                                                             
C 16.10  0.00 50.58                                                             
C 16.10  0.00 64.07                                                             
C  0.00 13.95 10.12                                                             
C  0.00 13.95 23.60                                                             
C  0.00 13.95 37.09                                                             
C  0.00 13.95 50.58                                                             
C  0.00 13.95 64.07                                                             
C  4.03 11.62 10.12                                                             
C  4.03 11.62 23.60                                                             
C  4.03 11.62 37.09                                                             
C  4.03 11.62 50.58                                                             
C  4.03 11.62 64.07                                                             
C  8.05  9.30 10.12                                                             
C  8.05  9.30 23.60                                                             
C  8.05  9.30 37.09                                                             
C  8.05  9.30 50.58                                                             
C  8.05  9.30 64.07                                                             
C 12.08  6.97 10.12                                                             
C 12.08  6.97 23.60                                                             
C 12.08  6.97 37.09                                                             
C 12.08  6.97 50.58                                                             
C 12.08  6.97 64.07                                                             
C 16.10  4.65 10.12                                                             
C 16.10  4.65 23.60                                                             
C 16.10  4.65 37.09                                                             
C 16.10  4.65 50.58                                                             
C 16.10  4.65 64.07                                                             
C 20.13  2.32 10.12                                                             
C 20.13  2.32 23.60                                                             
C 20.13  2.32 37.09                                                             
C 20.13  2.32 50.58                                                             
C 20.13  2.32 64.07                                                             
C 24.16  0.00 10.12                                                             
C 24.16  0.00 23.60                                                             
C 24.16  0.00 37.09                                                             
C 24.16  0.00 50.58                                                             
C 24.16  0.00 64.07                                                             
C  4.03 16.27 10.12                                                             
C  4.03 16.27 23.60                                                             
C  4.03 16.27 37.09                                                             
C  4.03 16.27 50.58                                                             
C  4.03 16.27 64.07                                                             
C  8.05 13.95 10.12                                                             
C  8.05 13.95 23.60                                                             
C  8.05 13.95 37.09                                                             
C  8.05 13.95 50.58                                                             
C  8.05 13.95 64.07                                                             
C 12.08 11.62 10.12                                                             
C 12.08 11.62 23.60                                                             
C 12.08 11.62 37.09                                                             
C 12.08 11.62 50.58                                                             
C 12.08 11.62 64.07                                                             
C 16.10  9.30 10.12                                                             
C 16.10  9.30 23.60                                                             
C 16.10  9.30 37.09                                                             
C 16.10  9.30 50.58                                                             
C 16.10  9.30 64.07                                                             
C 20.13  6.97 10.12                                                             
C 20.13  6.97 23.60                                                             
C 20.13  6.97 37.09                                                             
C 20.13  6.97 50.58                                                             
C 20.13  6.97 64.07                                                             
C 24.16  4.65 10.12                                                             
C 24.16  4.65 23.60                                                             
C 24.16  4.65 37.09                                                             
C 24.16  4.65 50.58                                                             
C 24.16  4.65 64.07                                                             
C 28.18  2.32 10.12                                                             
C 28.18  2.32 23.60                                                             
C 28.18  2.32 37.09                                                             
C 28.18  2.32 50.58                                                             
C 28.18  2.32 64.07                                                             
C 12.08 16.27 10.12                                                             
C 12.08 16.27 23.60                                                             
C 12.08 16.27 37.09                                                             
C 12.08 16.27 50.58                                                             
C 12.08 16.27 64.07                                                             
C 16.10 13.95 10.12                                                             
C 16.10 13.95 23.60                                                             
C 16.10 13.95 37.09                                                             
C 16.10 13.95 50.58                                                             
C 16.10 13.95 64.07                                                             
C 20.13 11.62 10.12                                                             
C 20.13 11.62 23.60                                                             
C 20.13 11.62 37.09                                                             
C 20.13 11.62 50.58                                                             
C 20.13 11.62 64.07                                                             
C 24.16  9.30 10.12                                                             
C 24.16  9.30 23.60                                                             
C 24.16  9.30 37.09                                                             
C 24.16  9.30 50.58                                                             
C 24.16  9.30 64.07                                                             
C 28.18  6.97 10.12                                                             
C 28.18  6.97 23.60                                                             
C 28.18  6.97 37.09                                                             
C 28.18  6.97 50.58                                                             
C 28.18  6.97 64.07                                                             
C 20.13 16.27 10.12                                                             
C 20.13 16.27 23.60                                                             
C 20.13 16.27 37.09                                                             
C 20.13 16.27 50.58                                                             
C 20.13 16.27 64.07                                                             
C 24.16 13.95 10.12                                                             
C 24.16 13.95 23.60                                                             
C 24.16 13.95 37.09                                                             
C 24.16 13.95 50.58                                                             
C 24.16 13.95 64.07                                                             
C 28.18 11.62 10.12                                                             
C 28.18 11.62 23.60                                                             
C 28.18 11.62 37.09                                                             
C 28.18 11.62 50.58                                                             
C 28.18 11.62 64.07                                                             
C 28.18 16.27 10.12                                                             
C 28.18 16.27 23.60                                                             
C 28.18 16.27 37.09                                                             
C 28.18 16.27 50.58                                                             
C 28.18 16.27 64.07                                                             
C  1.34  2.32  3.37                                                             
C  1.34  2.32 16.86                                                             
C  1.34  2.32 30.35                                                             
C  1.34  2.32 43.83                                                             
C  1.34  2.32 57.32                                                             
C  5.37  0.00  3.37                                                             
C  5.37  0.00 16.86                                                             
C  5.37  0.00 30.35                                                             
C  5.37  0.00 43.83                                                             
C  5.37  0.00 57.32                                                             
C  1.34  6.97  3.37                                                             
C  1.34  6.97 16.86                                                             
C  1.34  6.97 30.35                                                             
C  1.34  6.97 43.83                                                             
C  1.34  6.97 57.32                                                             
C  5.37  4.65  3.37                                                             
C  5.37  4.65 16.86                                                             
C  5.37  4.65 30.35                                                             
C  5.37  4.65 43.83                                                             
C  5.37  4.65 57.32                                                             
C  9.39  2.32  3.37                                                             
C  9.39  2.32 16.86                                                             
C  9.39  2.32 30.35                                                             
C  9.39  2.32 43.83                                                             
C  9.39  2.32 57.32                                                             
C 13.42  0.00  3.37                                                             
C 13.42  0.00 16.86                                                             
C 13.42  0.00 30.35                                                             
C 13.42  0.00 43.83                                                             
C 13.42  0.00 57.32                                                             
C  1.34 11.62  3.37                                                             
C  1.34 11.62 16.86                                                             
C  1.34 11.62 30.35                                                             
C  1.34 11.62 43.83                                                             
C  1.34 11.62 57.32                                                             
C  5.37  9.30  3.37                                                             
C  5.37  9.30 16.86                                                             
C  5.37  9.30 30.35                                                             
C  5.37  9.30 43.83                                                             
C  5.37  9.30 57.32                                                             
C  9.39  6.97  3.37                                                             
C  9.39  6.97 16.86                                                             
C  9.39  6.97 30.35                                                             
C  9.39  6.97 43.83                                                             
C  9.39  6.97 57.32                                                             
C 13.42  4.65  3.37                                                             
C 13.42  4.65 16.86                                                             
C 13.42  4.65 30.35                                                             
C 13.42  4.65 43.83                                                             
C 13.42  4.65 57.32                                                             
C 17.45  2.32  3.37                                                             
C 17.45  2.32 16.86                                                             
C 17.45  2.32 30.35                                                             
C 17.45  2.32 43.83                                                             
C 17.45  2.32 57.32                                                             
C 21.47  0.00  3.37                                                             
C 21.47  0.00 16.86                                                             
C 21.47  0.00 30.35                                                             
C 21.47  0.00 43.83                                                             
C 21.47  0.00 57.32                                                             
C  1.34 16.27  3.37                                                             
C  1.34 16.27 16.86                                                             
C  1.34 16.27 30.35                                                             
C  1.34 16.27 43.83                                                             
C  1.34 16.27 57.32                                                             
C  5.37 13.95  3.37                                                             
C  5.37 13.95 16.86                                                             
C  5.37 13.95 30.35                                                             
C  5.37 13.95 43.83                                                             
C  5.37 13.95 57.32                                                             
C  9.39 11.62  3.37                                                             
C  9.39 11.62 16.86                                                             
C  9.39 11.62 30.35                                                             
C  9.39 11.62 43.83                                                             
C  9.39 11.62 57.32                                                             
C 13.42  9.30  3.37                                                             
C 13.42  9.30 16.86                                                             
C 13.42  9.30 30.35                                                             
C 13.42  9.30 43.83                                                             
C 13.42  9.30 57.32                                                             
C 17.45  6.97  3.37                                                             
C 17.45  6.97 16.86                                                             
C 17.45  6.97 30.35                                                             
C 17.45  6.97 43.83                                                             
C 17.45  6.97 57.32                                                             
C 21.47  4.65  3.37                                                             
C 21.47  4.65 16.86                                                             
C 21.47  4.65 30.35                                                             
C 21.47  4.65 43.83                                                             
C 21.47  4.65 57.32                                                             
C 25.50  2.32  3.37                                                             
C 25.50  2.32 16.86                                                             
C 25.50  2.32 30.35                                                             
C 25.50  2.32 43.83                                                             
C 25.50  2.32 57.32                                                             
C 29.52  0.00  3.37                                                             
C 29.52  0.00 16.86                                                             
C 29.52  0.00 30.35                                                             
C 29.52  0.00 43.83                                                             
C 29.52  0.00 57.32                                                             
C  9.39 16.27  3.37                                                             
C  9.39 16.27 16.86                                                             
C  9.39 16.27 30.35                                                             
C  9.39 16.27 43.83                                                             
C  9.39 16.27 57.32                                                             
C 13.42 13.95  3.37                                                             
C 13.42 13.95 16.86                                                             
C 13.42 13.95 30.35                                                             
C 13.42 13.95 43.83                                                             
C 13.42 13.95 57.32                                                             
C 17.45 11.62  3.37                                                             
C 17.45 11.62 16.86                                                             
C 17.45 11.62 30.35                                                             
C 17.45 11.62 43.83                                                             
C 17.45 11.62 57.32                                                             
C 21.47  9.30  3.37                                                             
C 21.47  9.30 16.86                                                             
C 21.47  9.30 30.35                                                             
C 21.47  9.30 43.83                                                             
C 21.47  9.30 57.32                                                             
C 25.50  6.97  3.37                                                             
C 25.50  6.97 16.86                                                             
C 25.50  6.97 30.35                                                             
C 25.50  6.97 43.83                                                             
C 25.50  6.97 57.32                                                             
C 29.52  4.65  3.37                                                             
C 29.52  4.65 16.86                                                             
C 29.52  4.65 30.35                                                             
C 29.52  4.65 43.83                                                             
C 29.52  4.65 57.32                                                             
C 17.45 16.27  3.37                                                             
C 17.45 16.27 16.86                                                             
C 17.45 16.27 30.35                                                             
C 17.45 16.27 43.83                                                             
C 17.45 16.27 57.32                                                             
C 21.47 13.95  3.37                                                             
C 21.47 13.95 16.86                                                             
C 21.47 13.95 30.35                                                             
C 21.47 13.95 43.83                                                             
C 21.47 13.95 57.32                                                             
C 25.50 11.62  3.37                                                             
C 25.50 11.62 16.86                                                             
C 25.50 11.62 30.35                                                             
C 25.50 11.62 43.83                                                             
C 25.50 11.62 57.32                                                             
C 29.52  9.30  3.37                                                             
C 29.52  9.30 16.86                                                             
C 29.52  9.30 30.35                                                             
C 29.52  9.30 43.83                                                             
C 29.52  9.30 57.32                                                             
C 25.50 16.27  3.37                                                             
C 25.50 16.27 16.86                                                             
C 25.50 16.27 30.35                                                             
C 25.50 16.27 43.83                                                             
C 25.50 16.27 57.32                                                             
C 29.52 13.95  3.37                                                             
C 29.52 13.95 16.86                                                             
C 29.52 13.95 30.35                                                             
C 29.52 13.95 43.83                                                             
C 29.52 13.95 57.32                                                             
C  2.68  0.00 10.12                                                             
C  2.68  0.00 23.60                                                             
C  2.68  0.00 37.09                                                             
C  2.68  0.00 50.58                                                             
C  2.68  0.00 64.07                                                             
C  2.68  4.65 10.12                                                             
C  2.68  4.65 23.60                                                             
C  2.68  4.65 37.09                                                             
C  2.68  4.65 50.58                                                             
C  2.68  4.65 64.07                                                             
C  6.71  2.32 10.12                                                             
C  6.71  2.32 23.60                                                             
C  6.71  2.32 37.09                                                             
C  6.71  2.32 50.58                                                             
C  6.71  2.32 64.07                                                             
C 10.74  0.00 10.12                                                             
C 10.74  0.00 23.60                                                             
C 10.74  0.00 37.09                                                             
C 10.74  0.00 50.58                                                             
C 10.74  0.00 64.07                                                             
C  2.68  9.30 10.12                                                             
C  2.68  9.30 23.60                                                             
C  2.68  9.30 37.09                                                             
C  2.68  9.30 50.58                                                             
C  2.68  9.30 64.07                                                             
C  6.71  6.97 10.12                                                             
C  6.71  6.97 23.60                                                             
C  6.71  6.97 37.09                                                             
C  6.71  6.97 50.58                                                             
C  6.71  6.97 64.07                                                             
C 10.74  4.65 10.12                                                             
C 10.74  4.65 23.60                                                             
C 10.74  4.65 37.09                                                             
C 10.74  4.65 50.58                                                             
C 10.74  4.65 64.07                                                             
C 14.76  2.32 10.12                                                             
C 14.76  2.32 23.60                                                             
C 14.76  2.32 37.09                                                             
C 14.76  2.32 50.58                                                             
C 14.76  2.32 64.07                                                             
C 18.79  0.00 10.12                                                             
C 18.79  0.00 23.60                                                             
C 18.79  0.00 37.09                                                             
C 18.79  0.00 50.58                                                             
C 18.79  0.00 64.07                                                             
C  2.68 13.95 10.12                                                             
C  2.68 13.95 23.60                                                             
C  2.68 13.95 37.09                                                             
C  2.68 13.95 50.58                                                             
C  2.68 13.95 64.07                                                             
C  6.71 11.62 10.12                                                             
C  6.71 11.62 23.60                                                             
C  6.71 11.62 37.09                                                             
C  6.71 11.62 50.58                                                             
C  6.71 11.62 64.07                                                             
C 10.74  9.30 10.12                                                             
C 10.74  9.30 23.60                                                             
C 10.74  9.30 37.09                                                             
C 10.74  9.30 50.58                                                             
C 10.74  9.30 64.07                                                             
C 14.76  6.97 10.12                                                             
C 14.76  6.97 23.60                                                             
C 14.76  6.97 37.09                                                             
C 14.76  6.97 50.58                                                             
C 14.76  6.97 64.07                                                             
C 18.79  4.65 10.12                                                             
C 18.79  4.65 23.60                                                             
C 18.79  4.65 37.09                                                             
C 18.79  4.65 50.58                                                             
C 18.79  4.65 64.07                                                             
C 22.81  2.32 10.12                                                             
C 22.81  2.32 23.60                                                             
C 22.81  2.32 37.09                                                             
C 22.81  2.32 50.58                                                             
C 22.81  2.32 64.07                                                             
C 26.84  0.00 10.12                                                             
C 26.84  0.00 23.60                                                             
C 26.84  0.00 37.09                                                             
C 26.84  0.00 50.58                                                             
C 26.84  0.00 64.07                                                             
C  6.71 16.27 10.12                                                             
C  6.71 16.27 23.60                                                             
C  6.71 16.27 37.09                                                             
C  6.71 16.27 50.58                                                             
C  6.71 16.27 64.07                                                             
C 10.74 13.95 10.12                                                             
C 10.74 13.95 23.60                                                             
C 10.74 13.95 37.09                                                             
C 10.74 13.95 50.58                                                             
C 10.74 13.95 64.07                                                             
C 14.76 11.62 10.12                                                             
C 14.76 11.62 23.60                                                             
C 14.76 11.62 37.09                                                             
C 14.76 11.62 50.58                                                             
C 14.76 11.62 64.07                                                             
C 18.79  9.30 10.12                                                             
C 18.79  9.30 23.60                                                             
C 18.79  9.30 37.09                                                             
C 18.79  9.30 50.58                                                             
C 18.79  9.30 64.07                                                             
C 22.81  6.97 10.12                                                             
C 22.81  6.97 23.60                                                             
C 22.81  6.97 37.09                                                             
C 22.81  6.97 50.58                                                             
C 22.81  6.97 64.07                                                             
C 26.84  4.65 10.12                                                             
C 26.84  4.65 23.60                                                             
C 26.84  4.65 37.09                                                             
C 26.84  4.65 50.58                                                             
C 26.84  4.65 64.07                                                             
C 30.86  2.32 10.12                                                             
C 30.86  2.32 23.60                                                             
C 30.86  2.32 37.09                                                             
C 30.86  2.32 50.58                                                             
C 30.86  2.32 64.07                                                             
C 14.76 16.27 10.12                                                             
C 14.76 16.27 23.60                                                             
C 14.76 16.27 37.09                                                             
C 14.76 16.27 50.58                                                             
C 14.76 16.27 64.07                                                             
C 18.79 13.95 10.12                                                             
C 18.79 13.95 23.60                                                             
C 18.79 13.95 37.09                                                             
C 18.79 13.95 50.58                                                             
C 18.79 13.95 64.07                                                             
C 22.81 11.62 10.12                                                             
C 22.81 11.62 23.60                                                             
C 22.81 11.62 37.09                                                             
C 22.81 11.62 50.58                                                             
C 22.81 11.62 64.07                                                             
C 26.84  9.30 10.12                                                             
C 26.84  9.30 23.60                                                             
C 26.84  9.30 37.09                                                             
C 26.84  9.30 50.58                                                             
C 26.84  9.30 64.07                                                             
C 30.86  6.97 10.12                                                             
C 30.86  6.97 23.60                                                             
C 30.86  6.97 37.09                                                             
C 30.86  6.97 50.58                                                             
C 30.86  6.97 64.07                                                             
C 22.81 16.27 10.12                                                             
C 22.81 16.27 23.60                                                             
C 22.81 16.27 37.09                                                             
C 22.81 16.27 50.58                                                             
C 22.81 16.27 64.07                                                             
C 26.84 13.95 10.12                                                             
C 26.84 13.95 23.60                                                             
C 26.84 13.95 37.09                                                             
C 26.84 13.95 50.58                                                             
C 26.84 13.95 64.07                                                             
C 30.86 11.62 10.12                                                             
C 30.86 11.62 23.60                                                             
C 30.86 11.62 37.09                                                             
C 30.86 11.62 50.58                                                             
C 30.86 11.62 64.07                                                             
C 30.86 16.27 10.12                                                             
C 30.86 16.27 23.60                                                             
C 30.86 16.27 37.09                                                             
C 30.86 16.27 50.58                                                             
C 30.86 16.27 64.07                                                             
%ENDBLOCK POSITIONS_ABS                                                         

--------------------------------------------------------------------------------
-------------------------------- END INPUT FILE --------------------------------
--------------------------------------------------------------------------------


 
<<<<<<<<<<<<<<<<<<<<<<<<<<<<<<<<< Full system >>>>>>>>>>>>>>>>>>>>>>>>>>>>>>>>>>
<<<<<<<<<<<<<<<<<<<<<<<<<<< PAW Dataset information >>>>>>>>>>>>>>>>>>>>>>>>>>>
File: ~/pp/paw/c_pbe_abinit.paw; rc = 1.25 bohr; shape type =  3; rshape = 1.25 bohr;
  Atomic number:  6;  ionic charge:  4.000000
    Partial Wave 1: l = 0
    Partial Wave 2: l = 0
    Partial Wave 3: l = 1
    Partial Wave 4: l = 1
  Core charge supplied for Nonlinear Core Corrections
<<<<<<<<<<<<<<<<<<<<<<<<<<<<<<<<<<<<<<< >>>>>>>>>>>>>>>>>>>>>>>>>>>>>>>>>>>>>>>

-------------------------- Atom counting information ---------------------------
Symbol    Natoms    Nngwfs    Nprojs
  C        640      2560      5120
.......   ......    ......    ......
Totals:    640      2560      5120
--------------------------------------------------------------------------------

=============================== PSINC grid sizes ===============================
                      Simulation cell:   63 x  35 x 133
                              FFT-box:   63 x  35 x 117
                                  PPD:    7 x   5 x   1
Grid space d1=  0.511269841270a0 (KE cutoff=  29.06054Eh = 790.77748eV)
Grid space d2=  0.531142857143a0 (KE cutoff=  26.92659Eh = 732.70972eV)
Grid space d3=  0.507067669173a0 (KE cutoff=  29.54419Eh = 803.93845eV)
================================================================================
  
WARNING in cell_grid_distribute:
Average of less than one 23-slab per node, so workload cannot be
equally balanced between nodes.

********************* Fourier parallelisation information **********************
       Coarse grid (whole simulation cell) dimensions:     63    35   133
          Real-space ('12') slabs/node (min max mean):      3     4     3
         Recip-space ('23') slabs/node (min max mean):      0     1     0
********************************************************************************

********************* Fourier parallelisation information **********************
       Double grid (whole simulation cell) dimensions:    126    70   266
          Real-space ('12') slabs/node (min max mean):      6     7     6
         Recip-space ('23') slabs/node (min max mean):      1     2     1
********************************************************************************

Atom SCF Calculation for C  : Z (AE atom) =   6 : Z (PS atom) =   4
Config String: 2s2 2p2
Orbitals (num,occ):  2     2.00 2.00
Orbitals   (num,l):  2        0    1
Real-space Grid (nr,dr,rmax): 1293    0.0069659443    9.0000000000
Spherical Bessel Basis (nsws,lmax,cutoff):   37    2  161.4736382572
Confining potential (l,width,scale):  0    3.0000000000  100.0000000000
Confining potential (l,width,scale):  1    3.0000000000  100.0000000000
  1         -5.4795203654   -1.3252209296    4.5135257941   -1.6370402169
  2         -5.4480859746   -1.4027979239    4.4305951748   -1.6109819005
  3         -5.4553164790   -1.4212834043    4.4102618304   -1.6059039466
  4         -5.4627841133   -1.4247091338    4.4065122085   -1.6052907585
  5         -5.4662306655   -1.4266814823    4.4043715292   -1.6049352647
  6         -5.4679520247   -1.4277352742    4.4032348712   -1.6047493439
  7         -5.4688359568   -1.4282868030    4.4026432892   -1.6046541449
  8         -5.4692951245   -1.4285734530    4.4023374832   -1.6046056242
  9         -5.4695349887   -1.4287220785    4.4021797781   -1.6045809101
 10         -5.4696606791   -1.4287991022    4.4020984905   -1.6045683155
 11         -5.4697266650   -1.4288390363    4.4020565747   -1.6045618912
 12         -5.4697613504   -1.4288597596    4.4020349416   -1.6045586107
 13         -5.4697795998   -1.4288705262    4.4020237638   -1.6045569335
 14         -5.4697892089   -1.4288761271    4.4020179806   -1.6045560749
 15         -5.4697942720   -1.4288790448    4.4020149844   -1.6045556348
 16         -5.4697969415   -1.4288805668    4.4020134298   -1.6045554088
 17         -5.4697983498   -1.4288813619    4.4020126220   -1.6045552927
 18         -5.4697990933   -1.4288817779    4.4020122017   -1.6045552329
 19         -5.4697994860   -1.4288819957    4.4020119826   -1.6045552021
 20         -5.4697996936   -1.4288821100    4.4020118683   -1.6045551862
 21         -5.4697998034   -1.4288821701    4.4020118085   -1.6045551780
 22         -5.4697998614   -1.4288822017    4.4020117772   -1.6045551737
Atom SCF converged after  22 iterations to a total energy of     -5.46979986

Determining parallel strategy ...
... using space-filling curve
... NGWF load balancing: max     64;  min     64;  average     64
... Projector load balancing: max    128;  min    128;  average    128
... done
Calculating Ewald energy ...
              Ewald: real-space energy =    9484.121643
        Ewald: reciprocal-space energy =       0.193918
         Ewald: (sum_charge)**2 Energy =   11083.086384
         Ewald: (sum_charge**2) Energy =     876.194912
                          Ewald Energy =   -2474.965735
Basis initialisation ...... NGWF spheres initialised
... Projector spheres initialised
... NGWF tight boxes initialised
... Projector tight boxes initialised
... Tight-boxes gathered
... NGWF basis size (local,global):     693364  27894336
... PAW projector initialisation
... done

============================= Charge Augmentation ==============================
                           Aug box size:   11 x  11 x  11
================================================================================

========================== Sparse matrix information ===========================
                        Overlap matrix filling:  42.19%
                        Density kernel filling: 100.00%
              NGWF-Proj overlap matrix filling:  12.19%
                    Aug Overlap matrix filling:  47.03%
                    Hamiltonian matrix filling:  47.03%
                  NGWF diagonal matrix filling:   0.16%
                             KS matrix filling: 100.00% 
                           KSKS matrix filling: 100.00% 
================================================================================

Sparse matrix initialisation ... done
NGWF initialisation ...... done
============ Calculation of NGWF S^-1 using Hotelling algorithm ================ 
         Iteration  |  Frobenius norm and Maximum abs value    (of I-S*S_n^-1)   
               1       0.49041613E+02     0.97574932E+00
               2       0.47802430E+02     0.95334556E+00
               3       0.45948729E+02     0.91316035E+00
               4       0.43552637E+02     0.84669276E+00
               5       0.40687642E+02     0.74823021E+00
               6       0.37356033E+02     0.67873304E+00
               7       0.33880298E+02     0.63096062E+00
               8       0.30559447E+02     0.59073567E+00
               9       0.27004246E+02     0.54660006E+00
              10       0.22503184E+02     0.47734969E+00
              11       0.16634355E+02     0.36746693E+00
              12       0.98660697E+01     0.22286359E+00
              13       0.39716252E+01     0.87511873E-01
              14       0.77191963E+00     0.15527124E-01
              15       0.35107760E-01     0.60424983E-03
              16       0.95403203E-04     0.12027385E-05
              17       0.10751205E-08     0.81494811E-11
              18       0.73882108E-13     0.36637360E-14
================================================================================
Calculating core density ...
================================= Core Density =================================
               Core den box size:   21 x  21 x  21
================================================================================
 ... done
Up spin density kernel initialisation ...... done

Writing density kernel to file "3.5686496_GO_manual_4x64graphite.dkn" ... done

>>> Optimising kernel for current NGWFs:

--------------------------- Ensemble-DFT optimisation --------------------------
Running ScaLAPACK on   40 processor(s).

--------------------------------------------------------------------------------
  Iter                              Commutator    Free_energy(A=E-TS)     DeltaA
#    0                          0.000034776839   -3649.72875624664766  -3.65E+03

Step                       =       0.381966011250
Energy                     =   -3649.728728077022
Entropy (-TS)              =      -0.000028169429
Free energy (A=E-TS)       =   -3649.728756246648
Est. 0K Energy 0.5*(E+A)   =   -3649.728742161835
Residual Non-orthogonality =       0.000000000000
Residual N_electrons       =      -0.000000000196

Spin          Integrated_Ne            Fermi_level     Delta_Fermi_level
   1      2560.000000001072         0.182744455543              1.83E-01

                           Spin 1          
     Orb      H-eigenvalues     Occupancies
       1 |    -0.5413051702    1.0000000000 | 
                          ------
    1276 |     0.1481585852    0.9999819321 | 
    1277 |     0.1487790365    0.9999780217 | 
    1278 |     0.1487866977    0.9999779684 | 
    1279 |     0.1490830278    0.9999758074 | 
    1280 |     0.1497094619    0.9999705158 | 
                 - Gap at zero temperature -
    1281 |     0.2183864967    0.0000129440 | 
    1282 |     0.2183942369    0.0000129124 | 
    1283 |     0.2184274144    0.0000127778 | 
    1284 |     0.2185752791    0.0000121949 | 
    1285 |     0.2185968770    0.0000121120 | 
                          ------
    2560 |     1.0169554656    0.0000000000 | 

                       |  Abs_value |  Threshold | Converged
     Delta_Free_energy |   3.65E+03 |   1.00E-06 |        No
     Delta_Energy      |   3.65E+03 |   1.00E-04 |        No
     Delta_Entropy     |   2.82E-05 |   1.00E-04 |       Yes
     Commutator        |   3.48E-05 |   1.00E-05 |        No
     Delta_Fermi_level |   1.83E-01 |   1.00E-03 |        No

  Line search of the free energy minimum:
  Step_type        Step             Free_energy   Predicted_free_energy
.   Initial    0.000000    -3649.72875624664766
.    Trial1    0.381966    -3649.73003412358366
.    Trial2    0.618034    -3649.73020464493493
. Quadratic    0.585093    -3649.73020912613129    -3649.73020925050469

--------------------------------------------------------------------------------
  Iter                              Commutator    Free_energy(A=E-TS)     DeltaA
#    1                          0.000019793226   -3649.73020912613129  -1.45E-03

Step                       =       0.585093246684
Energy                     =   -3649.730181385525
Entropy (-TS)              =      -0.000027740244
Free energy (A=E-TS)       =   -3649.730209126131
Est. 0K Energy 0.5*(E+A)   =   -3649.730195255828
Residual Non-orthogonality =       0.000000000000
Residual N_electrons       =      -0.000000000362

Spin          Integrated_Ne            Fermi_level     Delta_Fermi_level
   1      2560.000000001982         0.182806567847              6.21E-05

                           Spin 1          
     Orb      H-eigenvalues     Occupancies
       1 |    -0.5428230787    1.0000000000 | 
                          ------
    1276 |     0.1482519670    0.9999817528 | 
    1277 |     0.1487192922    0.9999788513 | 
    1278 |     0.1487256731    0.9999788086 | 
    1279 |     0.1491820351    0.9999755239 | 
    1280 |     0.1496539491    0.9999715908 | 
                 - Gap at zero temperature -
    1281 |     0.2184405279    0.0000129771 | 
    1282 |     0.2184533346    0.0000129247 | 
    1283 |     0.2184931872    0.0000127630 | 
    1284 |     0.2186187734    0.0000122668 | 
    1285 |     0.2186528656    0.0000121355 | 
                          ------
    2560 |     1.0168210734    0.0000000000 | 

                       |  Abs_value |  Threshold | Converged
     Delta_Free_energy |   1.45E-03 |   1.00E-06 |        No
     Delta_Energy      |   1.45E-03 |   1.00E-04 |        No
     Delta_Entropy     |   4.29E-07 |   1.00E-04 |       Yes
     Commutator        |   1.98E-05 |   1.00E-05 |        No
     Delta_Fermi_level |   6.21E-05 |   1.00E-03 |       Yes

  Line search of the free energy minimum:
  Step_type        Step             Free_energy   Predicted_free_energy
.   Initial    0.000000    -3649.73020912613129
.    Trial1    0.585093    -3649.72994866362751
.    Trial2    0.223486    -3649.73055488633463
. Quadratic    0.252147    -3649.73055936040691    -3649.73055941229723

--------------------------------------------------------------------------------
  Iter                              Commutator    Free_energy(A=E-TS)     DeltaA
#    2                          0.000010740371   -3649.73055936040691  -3.50E-04

Step                       =       0.252147180441
Energy                     =   -3649.730531716202
Entropy (-TS)              =      -0.000027644127
Free energy (A=E-TS)       =   -3649.730559360407
Est. 0K Energy 0.5*(E+A)   =   -3649.730545538304
Residual Non-orthogonality =       0.000000000000
Residual N_electrons       =      -0.000000000078

Spin          Integrated_Ne            Fermi_level     Delta_Fermi_level
   1      2560.000000000427         0.182813356052              6.79E-06

                           Spin 1          
     Orb      H-eigenvalues     Occupancies
       1 |    -0.5430990610    1.0000000000 | 
                          ------
    1276 |     0.1482184363    0.9999819836 | 
    1277 |     0.1487362227    0.9999787835 | 
    1278 |     0.1487424632    0.9999787416 | 
    1279 |     0.1491471062    0.9999758442 | 
    1280 |     0.1496693479    0.9999715135 | 
                 - Gap at zero temperature -
    1281 |     0.2184763757    0.0000128585 | 
    1282 |     0.2184889473    0.0000128076 | 
    1283 |     0.2185274095    0.0000126530 | 
    1284 |     0.2186592951    0.0000121368 | 
    1285 |     0.2186936581    0.0000120059 | 
                          ------
    2560 |     1.0167861800    0.0000000000 | 

                       |  Abs_value |  Threshold | Converged
     Delta_Free_energy |   3.50E-04 |   1.00E-06 |        No
     Delta_Energy      |   3.50E-04 |   1.00E-04 |        No
     Delta_Entropy     |   9.61E-08 |   1.00E-04 |       Yes
     Commutator        |   1.07E-05 |   1.00E-05 |        No
     Delta_Fermi_level |   6.79E-06 |   1.00E-03 |       Yes

  Line search of the free energy minimum:
  Step_type        Step             Free_energy   Predicted_free_energy
.   Initial    0.000000    -3649.73055936040691
.    Trial1    0.252147    -3649.73065449329442
.    Trial2    0.537802    -3649.73065183567905
. Quadratic    0.388503    -3649.73066784347702    -3649.73066785869514

--------------------------------------------------------------------------------
  Iter                              Commutator    Free_energy(A=E-TS)     DeltaA
#    3                          0.000007390333   -3649.73066784347702  -1.08E-04

Step                       =       0.388503121083
Energy                     =   -3649.730640308713
Entropy (-TS)              =      -0.000027534785
Free energy (A=E-TS)       =   -3649.730667843477
Est. 0K Energy 0.5*(E+A)   =   -3649.730654076095
Residual Non-orthogonality =       0.000000000000
Residual N_electrons       =       0.000000000021

Spin          Integrated_Ne            Fermi_level     Delta_Fermi_level
   1      2559.999999999884         0.182820263590              6.91E-06

                           Spin 1          
     Orb      H-eigenvalues     Occupancies
       1 |    -0.5434086595    1.0000000000 | 
                          ------
    1276 |     0.1481991793    0.9999821319 | 
    1277 |     0.1487386692    0.9999788133 | 
    1278 |     0.1487447474    0.9999787726 | 
    1279 |     0.1491272813    0.9999760472 | 
    1280 |     0.1496710702    0.9999715601 | 
                 - Gap at zero temperature -
    1281 |     0.2185036974    0.0000127759 | 
    1282 |     0.2185160156    0.0000127263 | 
    1283 |     0.2185537601    0.0000125755 | 
    1284 |     0.2186890430    0.0000120496 | 
    1285 |     0.2187235494    0.0000119190 | 
                          ------
    2560 |     1.0167653832    0.0000000000 | 

                       |  Abs_value |  Threshold | Converged
     Delta_Free_energy |   1.08E-04 |   1.00E-06 |        No
     Delta_Energy      |   1.09E-04 |   1.00E-04 |        No
     Delta_Entropy     |   1.09E-07 |   1.00E-04 |       Yes
     Commutator        |   7.39E-06 |   1.00E-05 |       Yes
     Delta_Fermi_level |   6.91E-06 |   1.00E-03 |       Yes

  Line search of the free energy minimum:
  Step_type        Step             Free_energy   Predicted_free_energy
.   Initial    0.000000    -3649.73066784347702
.    Trial1    0.388503    -3649.73070196321942
.    Trial2    0.622074    -3649.73062298053765
. Quadratic    0.258378    -3649.73071357206845    -3649.73071355806178

--------------------------------------------------------------------------------
  Iter                              Commutator    Free_energy(A=E-TS)     DeltaA
#    4                          0.000004754625   -3649.73071357206845  -4.57E-05

Step                       =       0.258378115563
Energy                     =   -3649.730686080251
[...]
 C   275 -- C   555       -0.10      5.37000
 C   274 -- C   554       -0.10      5.37000
 C   273 -- C   553       -0.10      5.37000
 C   272 -- C   552       -0.10      5.37000
 C   271 -- C   551       -0.10      5.37000
 C   270 -- C   550       -0.10      5.37000
 C   269 -- C   549       -0.10      5.37000
 C   268 -- C   548       -0.10      5.37000
 C   267 -- C   547       -0.10      5.37000
 C   266 -- C   546       -0.10      5.37000
 C   130 -- C   465       -0.10      5.37000
 C   129 -- C   464       -0.10      5.37000
 C   128 -- C   463       -0.10      5.37000
 C   127 -- C   462       -0.10      5.37000
 C   126 -- C   461       -0.10      5.37000
 C   240 -- C   525       -0.10      5.37000
 C   239 -- C   524       -0.10      5.37000
 C   238 -- C   523       -0.10      5.37000
 C   237 -- C   522       -0.10      5.37000
 C   236 -- C   521       -0.10      5.37000
 C    23 -- C   478       -0.10      5.37202
 C    49 -- C   469       -0.10      5.37202
 C    48 -- C   468       -0.10      5.37202
 C    47 -- C   467       -0.10      5.37202
 C    22 -- C   477       -0.10      5.37202
 C    46 -- C   466       -0.10      5.37202
 C    21 -- C   476       -0.10      5.37202
 C    25 -- C   480       -0.10      5.37202
 C    24 -- C   479       -0.10      5.37202
 C    50 -- C   470       -0.10      5.37202
 C    24 -- C   449       -0.10      5.37202
 C     6 -- C   416       -0.10      5.37202
 C    23 -- C   448       -0.10      5.37202
 C    22 -- C   447       -0.10      5.37202
 C    10 -- C   470       -0.10      5.37202
 C     5 -- C   450       -0.10      5.37202
 C    21 -- C   446       -0.10      5.37202
 C    10 -- C   420       -0.10      5.37202
 C     9 -- C   469       -0.10      5.37202
 C     9 -- C   419       -0.10      5.37202
 C     8 -- C   468       -0.10      5.37202
 C     4 -- C   449       -0.10      5.37202
 C     8 -- C   418       -0.10      5.37202
 C   285 -- C   580       -0.10      5.37202
 C   284 -- C   579       -0.10      5.37202
 C   283 -- C   578       -0.10      5.37202
 C   282 -- C   577       -0.10      5.37202
 C   281 -- C   576       -0.10      5.37202
 C     2 -- C   447       -0.10      5.37202
 C     7 -- C   467       -0.10      5.37202
 C   260 -- C   605       -0.10      5.37202
 C   259 -- C   604       -0.10      5.37202
 C   258 -- C   603       -0.10      5.37202
 C   257 -- C   602       -0.10      5.37202
 C   256 -- C   601       -0.10      5.37202
 C     7 -- C   417       -0.10      5.37202
 C     1 -- C   446       -0.10      5.37202
 C     6 -- C   466       -0.10      5.37202
 C    25 -- C   450       -0.10      5.37202
 C     3 -- C   448       -0.10      5.37202
 C   219 -- C   569       -0.10      5.37202
 C   218 -- C   568       -0.10      5.37202
 C   217 -- C   567       -0.10      5.37202
 C   216 -- C   566       -0.10      5.37202
 C   250 -- C   540       -0.10      5.37202
 C   249 -- C   539       -0.10      5.37202
 C   248 -- C   538       -0.10      5.37202
 C   247 -- C   537       -0.10      5.37202
 C   246 -- C   536       -0.10      5.37202
 C   220 -- C   570       -0.10      5.37202
 C   205 -- C   550       -0.10      5.37202
 C   204 -- C   549       -0.10      5.37202
 C   203 -- C   548       -0.10      5.37202
 C   202 -- C   547       -0.10      5.37202
 C   201 -- C   546       -0.10      5.37202
 C    95 -- C   365       -0.10      5.37202
 C    94 -- C   364       -0.10      5.37202
 C    93 -- C   363       -0.10      5.37202
 C    92 -- C   362       -0.10      5.37202
 C    91 -- C   361       -0.10      5.37202
 C    65 -- C   395       -0.10      5.37202
 C    64 -- C   394       -0.10      5.37202
 C    63 -- C   393       -0.10      5.37202
 C    30 -- C   355       -0.10      5.37202
 C    62 -- C   392       -0.10      5.37202
 C    61 -- C   391       -0.10      5.37202
 C    29 -- C   354       -0.10      5.37202
 C   260 -- C   550       -0.10      5.37202
 C   259 -- C   549       -0.10      5.37202
 C    28 -- C   353       -0.10      5.37202
 C   258 -- C   548       -0.10      5.37202
 C   257 -- C   547       -0.10      5.37202
 C   256 -- C   546       -0.10      5.37202
 C    27 -- C   352       -0.10      5.37202
 C    26 -- C   351       -0.10      5.37202
 C    55 -- C   335       -0.10      5.37202
 C    54 -- C   334       -0.10      5.37202
 C    53 -- C   333       -0.10      5.37202
 C   230 -- C   580       -0.10      5.37202
 C   230 -- C   525       -0.10      5.37202
 C   229 -- C   579       -0.10      5.37202
 C   229 -- C   524       -0.10      5.37202
 C   228 -- C   578       -0.10      5.37202
 C    52 -- C   332       -0.10      5.37202
 C   228 -- C   523       -0.10      5.37202
 C   227 -- C   577       -0.10      5.37202
 C   227 -- C   522       -0.10      5.37202
 C   226 -- C   576       -0.10      5.37202
 C   226 -- C   521       -0.10      5.37202
 C    51 -- C   331       -0.10      5.37202
 C   220 -- C   515       -0.10      5.37202
 C   219 -- C   514       -0.10      5.37202
 C   218 -- C   513       -0.10      5.37202
 C   217 -- C   512       -0.10      5.37202
 C   216 -- C   511       -0.10      5.37202
 C   195 -- C   540       -0.10      5.37202
 C   195 -- C   500       -0.10      5.37202
 C   194 -- C   539       -0.10      5.37202
 C   194 -- C   499       -0.10      5.37202
 C   193 -- C   538       -0.10      5.37202
 C   193 -- C   498       -0.10      5.37202
 C   192 -- C   537       -0.10      5.37202
 C   192 -- C   497       -0.10      5.37202
 C   191 -- C   536       -0.10      5.37202
 C   191 -- C   496       -0.10      5.37202
 C   180 -- C   515       -0.10      5.37202
 C   179 -- C   514       -0.10      5.37202
 C   178 -- C   513       -0.10      5.37202
 C   177 -- C   512       -0.10      5.37202
 C   176 -- C   511       -0.10      5.37202
 C   150 -- C   440       -0.10      5.37202
 C   149 -- C   439       -0.10      5.37202
 C   148 -- C   438       -0.10      5.37202
 C   147 -- C   437       -0.10      5.37202
 C   146 -- C   436       -0.10      5.37202
 C   135 -- C   460       -0.10      5.37202
 C   134 -- C   459       -0.10      5.37202
 C   133 -- C   458       -0.10      5.37202
 C   132 -- C   457       -0.10      5.37202
 C   131 -- C   456       -0.10      5.37202
 C    11 -- C   331       -0.10      5.37202
 C    95 -- C   425       -0.10      5.37202
 C    94 -- C   424       -0.10      5.37202
 C    93 -- C   423       -0.10      5.37202
 C    92 -- C   422       -0.10      5.37202
 C    91 -- C   421       -0.10      5.37202
 C    85 -- C   355       -0.10      5.37202
 C    40 -- C   365       -0.10      5.37202
 C    84 -- C   354       -0.10      5.37202
 C    83 -- C   353       -0.10      5.37202
 C    82 -- C   352       -0.10      5.37202
 C    39 -- C   364       -0.10      5.37202
 C    81 -- C   351       -0.10      5.37202
 C    38 -- C   363       -0.10      5.37202
 C    37 -- C   362       -0.10      5.37202
 C    36 -- C   361       -0.10      5.37202
 C    15 -- C   335       -0.10      5.37202
 C    65 -- C   345       -0.10      5.37202
 C    64 -- C   344       -0.10      5.37202
 C    63 -- C   343       -0.10      5.37202
 C    30 -- C   325       -0.10      5.37202
 C    62 -- C   342       -0.10      5.37202
 C    14 -- C   334       -0.10      5.37202
 C    61 -- C   341       -0.10      5.37202
 C    29 -- C   324       -0.10      5.37202
 C    28 -- C   323       -0.10      5.37202
 C    13 -- C   333       -0.10      5.37202
 C    27 -- C   322       -0.10      5.37202
 C   120 -- C   395       -0.10      5.37202
 C    55 -- C   385       -0.10      5.37202
 C   119 -- C   394       -0.10      5.37202
 C   118 -- C   393       -0.10      5.37202
 C   117 -- C   392       -0.10      5.37202
 C    54 -- C   384       -0.10      5.37202
 C    26 -- C   321       -0.10      5.37202
 C   116 -- C   391       -0.10      5.37202
 C    53 -- C   383       -0.10      5.37202
 C    12 -- C   332       -0.10      5.37202
 C    52 -- C   382       -0.10      5.37202
 C    51 -- C   381       -0.10      5.37202
 C   106 -- C   436       -0.10      5.37202
 C   106 -- C   376       -0.10      5.37202
 C    80 -- C   410       -0.10      5.37202
 C    79 -- C   409       -0.10      5.37202
 C    78 -- C   408       -0.10      5.37202
 C    77 -- C   407       -0.10      5.37202
 C    76 -- C   406       -0.10      5.37202
 C   135 -- C   410       -0.10      5.37202
 C   134 -- C   409       -0.10      5.37202
 C   133 -- C   408       -0.10      5.37202
 C   132 -- C   407       -0.10      5.37202
 C   131 -- C   406       -0.10      5.37202
 C   110 -- C   440       -0.10      5.37202
 C   110 -- C   380       -0.10      5.37202
 C   109 -- C   439       -0.10      5.37202
 C   109 -- C   379       -0.10      5.37202
 C   108 -- C   438       -0.10      5.37202
 C   108 -- C   378       -0.10      5.37202
 C   107 -- C   437       -0.10      5.37202
 C   107 -- C   377       -0.10      5.37202
 C   215 -- C   635       -0.10      5.38000
 C   214 -- C   634       -0.10      5.38000
 C   213 -- C   633       -0.10      5.38000
 C   212 -- C   632       -0.10      5.38000
 C   211 -- C   631       -0.10      5.38000
 C   190 -- C   620       -0.10      5.38000
 C   189 -- C   619       -0.10      5.38000
 C   188 -- C   618       -0.10      5.38000
 C   187 -- C   617       -0.10      5.38000
 C   186 -- C   616       -0.10      5.38000
 C   175 -- C   595       -0.10      5.38000
 C   174 -- C   594       -0.10      5.38000
 C   173 -- C   593       -0.10      5.38000
 C   172 -- C   592       -0.10      5.38000
 C   171 -- C   591       -0.10      5.38000
 C   245 -- C   640       -0.10      5.38000
 C   244 -- C   639       -0.10      5.38000
 C   243 -- C   638       -0.10      5.38000
 C   242 -- C   637       -0.10      5.38000
 C   241 -- C   636       -0.10      5.38000
==================================================


=================== Orbital energy and occupancy information ===================

      Total number of orbitals:    2560
        Occupancy sum (kernel):    1280.000000000
   Occupancy sum (eigenvalues):    1280.000000000
                 HOMO-LUMO gap:       0.065169543 Eh
                 Mid-gap level:       0.234638823 Eh

                        Orbital | Energy (Eh) | Occupancy
                            1    -0.488072191   1.0000000
                        .......   ...........   .........
                         1271     0.197087847   0.9999891
                         1272     0.197118432   0.9999890
                         1273     0.197559703   0.9999873
                         1274     0.197590306   0.9999872
                         1275     0.200562483   0.9999673
                         1276     0.200566735   0.9999673
                         1277     0.201028653   0.9999622
                         1278     0.201032901   0.9999621
                         1279     0.201593113   0.9999548
                         1280     0.202054051   0.9999477
                        ....... -- gap at 0K -- .........
                         1281     0.267223594   0.0000221
                         1282     0.267237690   0.0000220
                         1283     0.267474425   0.0000204
                         1284     0.267488411   0.0000203
                         1285     0.267666807   0.0000192
                         1286     0.267671187   0.0000192
                         1287     0.267929491   0.0000177
                         1288     0.267933915   0.0000176
                         1289     0.268012749   0.0000172
                         1290     0.268191649   0.0000162
                        .......   ...........   .........
                         2560     1.127436964   0.0000000

================================================================================

===================== Writing canonical molecular orbitals =====================
| Orbital  Energy (eV)  Norm     |
| HOMO      5.49817050  1.000000 | Writing "3.5686496_GO_manual_4x64graphite_HOMO.cube" ... done
Writing "3.5686496_GO_manual_4x64graphite_HOMO.dx" ... done
| LUMO      7.27152400  1.000000 | Writing "3.5686496_GO_manual_4x64graphite_LUMO.cube" ... done
Writing "3.5686496_GO_manual_4x64graphite_LUMO.dx" ... done
================================================================================
 
===================== Density of States (DOS) calculation ======================
Writing "3.5686496_GO_manual_4x64graphite_DOS.txt" ...  done
================================================================================
 
Writing bands to file "3.5686496_GO_manual_4x64graphite.val_bands" ... done
 
================ Projected Density of States (pDOS) calculation ================
 
Constructing AM resolved functions  ...... done
Writing NGWF plot files in formats: CUBE DX ...  done
 
Performing overlap integrals ...  done
 
Computing pDOS weights ...  done
 
All bands spilling parameter =   3.38 %
Occupancy-weighted spilling parameter =   0.91 %
 
 => Outputting data for OptaDOS <=
 
Writing pDOS weights to file "3.5686496_GO_manual_4x64graphite.val_pdos_bin" ... done
 
Writing band gradients to file "3.5686496_GO_manual_4x64graphite.val_dome_bin" ... done
 
Writing Castep output cell file to "3.5686496_GO_manual_4x64graphite-out.cell" ... done
 
 => Computing Gaussian smeared pDOS <= 
Writing "3.5686496_GO_manual_4x64graphite_PDOS.txt" ...  done
 
 => Computing Occupancy-weighted Gaussian smeared pDOS <= 
Writing "3.5686496_GO_manual_4x64graphite_occ_PDOS.txt" ...  done
  => Band centres: 
 S band centre of group 1:  -14.705816 eV
 P band centre of group 1:   -7.587302 eV
  Band centres done. <=
  => Integrated number of electrons in each AM band: 
 S num electrons of group 1:  575.504067
 P num electrons of group 1: 1961.195520
  Integrated number of electrons done. <=
================================================================================

------------------------------ TIMING INFORMATION ------------------------------
AVERAGE TIME:    3317.518s on     40 node(s)                                    
TOTAL TIME:      3317.518s on     40 node(s)                                    
================= AVERAGE TIMINGS FROM ALL NODES (CUMULATIVE) ==================
|| TAG                                    #calls    cpu time   %total  Gflops ||
|| work_imbalance                       :     1        0.00s   0.000%  ------ ||
|| paw_tcore_hartree_on_grid            :     1        0.01s   0.000%  ------ ||
|| paw_tcore_density                    :     1        0.01s   0.000%  ------ ||
|| paw_sphere_density_on_grid           :     1        0.01s   0.000%  ------ ||
|| sparse_set_to_garbage                :   147        0.02s   0.001%  ------ ||
|| paw_dij_hartree                      :   300        0.04s   0.001%  ------ ||
|| pseudo_make_structure_factor         :     1        0.07s   0.002%  ------ ||
|| basis_extract_function_from_box      :  1664        0.07s   0.002%  ------ ||
|| paw_species_calc_proj_prec_mat       :     1        0.12s   0.004%  ------ ||
|| paw_dataset_init                     :     1        0.16s   0.005%  ------ ||
|| density_init_guess_real              :     1        0.23s   0.007%  ------ ||
|| restart_kernel_write                 :    14        0.64s   0.019%  ------ ||
|| ngwfs_initialise_from_radial         :     2        0.67s   0.020%  ------ ||
|| sparse_init                          :     1        0.91s   0.027%  ------ ||
|| dense_normal_eigensolve              :     1        0.95s   0.029%  ------ ||
|| hartree_on_grid                      :   225        1.19s   0.036%  ------ ||
|| projectors_init_fftbox_recip         :   131        2.51s   0.076%  ------ ||
|| ewald_calculate_energy               :     1        3.09s   0.093%  ------ ||
|| fourier_apply_box_pair               :  2464        4.07s   0.123% 561.027 ||
|| basis_copy_function_to_box           : 21440        4.63s   0.140%  ------ ||
|| augmentation_screen_dij              :   230        4.96s   0.150%  ------ ||
|| sw_init                              :     1        6.73s   0.203%  ------ ||
|| sparse_embed_hotelling_invert_embed  :    25        6.98s   0.210%  ------ ||
|| ngwf_gradient_coeffs                 :    13        9.12s   0.275%  ------ ||
|| fourier_apply_cell_backward          :  6946       13.38s   0.403%  65.116 ||
|| fourier_apply_cell_forward           :  6497       14.10s   0.425%  57.812 ||
|| cell_grid_extract_box_real           :  9068       14.60s   0.440%  ------ ||
|| sparse_trace                         :  2714       15.27s   0.460%  ------ ||
|| cell_grid_deposit_box_real           : 28976       16.37s   0.494%  ------ ||
|| paw_dij_xc                           :   300       23.88s   0.720%  ------ ||
|| density_fftbox_deposit_to_cell       : 14400       32.42s   0.977%  ------ ||
|| aug_nonlocal_mat                     :   287       32.99s   0.994%  ------ ||
|| augmentation_density_on_grid         :   225       38.25s   1.153%  ------ ||
|| hamiltonian_energy_components        :     3       45.76s   1.379%  ------ ||
|| function_ops_brappd_ketppd           :    52       50.57s   1.524%  ------ ||
|| eigenstates_pdos                     :     1       52.82s   1.592%  ------ ||
|| eigenstates_calculate                :     1       57.06s   1.720%  ------ ||
|| projectors_func_ovlp_box             :    26       57.43s   1.731%  ------ ||
|| nlxc_vdw_energy                      :   448       58.00s   1.748%  ------ ||
|| xc_energy_potential                  :   224       66.58s   2.007%  ------ ||
|| integrals_kinetic                    :    25       80.86s   2.437%  ------ ||
|| dense_eigensolve                     :   196       89.97s   2.712%  ------ ||
|| properties_calculate                 :     1      103.54s   3.121%  ------ ||
|| sparse_product                       :  2759      106.77s   3.219%  ------ ||
|| potential_apply_to_ngwf_batch        :   284      108.35s   3.266%  ------ ||
|| restart_ngwfs_tightbox_output        :    12      175.88s   5.302%  ------ ||
|| basis_dot_function_with_box          : 6.811M     186.40s   5.619%  ------ ||
|| edft_diag_ngwf_ham                   :   195      209.30s   6.309%  ------ ||
|| fourier_apply_box                    : 67600      209.56s   6.317% 979.646 ||
|| projectors_gradient_batch            :    52      234.75s   7.076%  ------ ||
|| integrals_locpot_mat_els_batch       :   284      239.49s   7.219%  ------ ||
|| density_fftbox_interpolate_multiply  : 14400      279.10s   8.413%  ------ ||
|| projectors_grad_precond_batch        :    52      324.38s   9.778%  ------ ||
|| density_batch_interp_deposit         :   900      342.62s  10.327%  ------ ||
|| integrals_locpot_dbl_grid            :    71      349.16s  10.525%  ------ ||
|| edft_apply_smearing_operator         :   195      413.54s  12.465%  ------ ||
|| basis_add_function_to_box            : 19.15M     505.77s  15.245%  ------ ||
|| ngwf_gradient_build_batch            :    52      598.22s  18.032%  ------ ||
|| density_batch_row_sums               :   900      680.60s  20.515%  ------ ||
|| ngwf_gradient_batch                  :    52      795.46s  23.978%  ------ ||
|| ngwf_gradient_lnv                    :    13      820.77s  24.741%  ------ ||
|| density_on_dbl_grid                  :   225     1033.78s  31.161%  ------ ||
|| hamiltonian_lhxc_calculate           :   220     1115.97s  33.639%  ------ ||
|| edft_calculate                       :    13     1864.31s  56.196%  ------ ||
|| ngwf_cg_optimise                     :     1     3188.03s  96.097%  ------ ||
|| total_time                           :     1     3317.52s 100.000%  ------ ||
================================================================================
Overhead of generating timer report: 
- 0 ms averaging over threads,
- 5 ms ensuring consistency across MPI ranks,
- 0 ms printing in order.

Job completed: 25-02-2020 00:13 (-0000)

