 +---------------------------------------------------------------+
 |                                                               |
 |        ####### #     # ####### ####### ####### ######         |
 |        #     # ##    # #          #    #       #     #        |
 |        #     # # #   # #          #    #       #     #        |
 |        #     # #  #  # #####      #    #####   ######         |
 |        #     # #   # # #          #    #       #              |
 |        #     # #    ## #          #    #       #              |
 |        ####### #     # #######    #    ####### #              |
 |                                                               |
 |        Linear-Scaling Ab Initio Total Energy Program          |
 |                                                               |
 |          Release for academic collaborators of ODG            |
 |                                             Version 5.3.2.12  |
 |                                                               |
 +---------------------------------------------------------------+
 |                                                               |
 |  Authors:                                                     |
 |  Jacek Dziedzic, Peter D. Haynes, Nicholas D. M. Hine,        |
 |  Arash. A. Mostofi, Mike C. Payne and Chris-Kriton Skylaris   |
 |                                                               |
 |  Contributors:                                                |
 |  J. Aarons, L. Andrinopoulos, P. W. Avraam, R. A. Bell,       |
 |  A. Bhandari, G. A. Bramley, R. J. Charlton, S. J. Clark,     |
 |  R. J. Clements, G. C. Constantinescu, F. Corsetti,           |
 |  N. Corsini, O. Dieguez, S. M. M. Dubois, K. K. B. Duff,      |
 |  J. M. Escartin, A. Greco, H. Helal, Q. O. Hill, L. P. Lee,   |
 |  J.-H. Li, E. B. Linscott, G. Moynihan, D. D. O`Regan,        |
 |  O. K. Okan, M. J. S. Phipps, C. J. Pickard,                  |
 |  J. C. A. Prentice, M. I. J. Probert, L. E. Ratcliff,         |
 |  M. Robinson, A. Ruiz Serrano, J. S. Spencer, E. W. Tait,     |
 |  G. Teobaldi, D. Turban, V. Vitale, K. A. Wilkinson,          |
 |  C. Weber, J. C. Womack, N. Yeung and T. J. Zuehlsdorff       |
 |                                                               |
 |                                   Copyright (c) 2004-2020     |
 |                                                               |
 |  Please cite:                                                 |
 |  "Introducing ONETEP: Linear-scaling density functional       |
 |   simulations on parallel computers".                         |
 |   C.-K. Skylaris, P. D. Haynes, A. A. Mostofi, M. C. Payne.   |
 |   J. Chem. Phys. 122 084119 (2005).                           |
 |                                                               |
 |          in all publications arising from your use of ONETEP. |
 |                                                               |
 +---------------------------------------------------------------+
 |                                                               |
 |   ONETEP is based on developments described in the following  |
 |   publications:                                               |
 |                                                               |
 |  "Nonorthogonal generalized Wannier function pseudopotential  |
 |   plane-wave method".                                         |
 |   C.-K. Skylaris, A. A. Mostofi, P. D. Haynes, O. Dieguez,    |
 |   M. C. Payne.                                                |
 |   Phys. Rev. B 66 035119 (2002).                              |
 |                                                               |
 |  "Preconditioned iterative minimization for linear-scaling    |
 |   electronic structure calculations".                         |
 |   A. A. Mostofi, P. D. Haynes, C.-K. Skylaris, M. C. Payne.   |
 |   J. Chem. Phys. 119(17), pp.8842-8848 (2003).                |
 |                                                               |
 |  "Total-energy calculations on a real space grid with         |
 |   localized functions and a plane-wave basis".                |
 |   A. A. Mostofi, C.-K. Skylaris, P. D. Haynes, M. C. Payne.   |
 |   Comput. Phys. Commun. 147, pp.788-802 (2002).               |
 |                                                               |
 |  "Accurate kinetic energy evaluation in electronic structure  |
 |   calculations with localized functions on real space grids"  |
 |   C.-K. Skylaris, A. A. Mostofi, P. D. Haynes, C. J. Pickard, |
 |   M. C. Payne.                                                |
 |   Comput. Phys. Commun. 140, pp.315-322 (2001).               |
 |                                                               |
 |  "Accurate ionic forces and geometry optimization in linear-  |
 |   scaling density-functional theory with local orbitals"      |
 |   N. D. M. Hine, M. Robinson, P. D. Haynes, C.-K. Skylaris,   |
 |   M. C. Payne, and A. A. Mostofi.                             |
 |   Phys. Rev. B 83 195102 (2011).                              |
 |                                                               |
 +---------------------------------------------------------------+

Job started: 24-02-2020 23:18 (-0000)
 
Reading parameters from file "3.5954808_GO_manual_4x64graphite.dat" ...

WARNING: "cutoff_energy" not specified, but "psinc_spacing" specified.
         Using the latter to set the KE cutoff energy to  732.32021eV,
         thus *overriding* the default.

... done

If your calculation crashes here, before "Checking processes and threads..."
is displayed, then your stack size is insufficient.
If so, use "ulimit -s unlimited" at runtime.
You can disable this check with "check_stack_size F".

Checking processes and threads...
   Determining the default number of threads...
      No default threads set at compilation time: defaulting to 1.
      OpenMP library call suggests 4 threads.
      Hybrid MPI-OpenMP compilation detected.
      Number of MPI processes > 1.
      OMP_NUM_THREADS environment variable present and
      its value matches the one obtained from the OpenMP library call.
      Using this value as default.
      Default threads: 4
      Default applies to threads_max and threads_num_fftboxes.
      Settings in the input file override this default.
   ... done

   Running with 40 MPI processes.
   There are 10 MPI processes running on the same node as the root process.
   Each MPI process is using: 
               1 threads for simulation cell FFTs.
               1 threads for parallel FFT box operations.
               4 threads for loops over batched FFT box operations.
               4 threads in other parallel regions.
... done

Basic input checks...
Resetting ngwf_cg_rotate to TRUE for EDFT calculations
... done

Reading geometry and species blocks from file "3.5954808_GO_manual_4x64graphite.dat" ...
    
  PSINC grid spacing along a1 set to   0.511215680000a0 from input file.
  PSINC grid spacing along a2 set to   0.531284090000a0 from input file.
  PSINC grid spacing along a3 set to   0.507051340000a0 from input file.
  Number of PPD points along a3 set to 1.  This is 
  the default value, it may have been provided also in the input file.
... done
 Writing xyz coordinates to file "3.5954808_GO_manual_4x64graphite.xyz" ... done


--------------------------------------------------------------------------------
---------------------------------- INPUT FILE ----------------------------------
--------------------------------------------------------------------------------

task : singlepoint                                                              
do_properties : true                                                            
dx_format T                                                                     
edft T                                                                          
output_detail VERBOSE                                                           
write_xyz T                                                                     
xc_functional OPTPBE                                                            
PSINC_SPACING 0.51121568 0.53128409 0.50705134                                  
paw T                                                                           
pdos_max_l = 2                                                                  
dos_smear  0.1 eV                                                               
popn_calculate T                                                                
PDOS_PSEUDOATOMIC T                                                             
PDOS_REDUCE_SWS F                                                               
PDOS_CONSTRUCT_BASIS F                                                          
PDOS_LOWDIN T                                                                   
PDOS_ORTH_ATOM_BLOCKS F                                                         
PDOS_LCAO_OPTIMIZE F                                                            
pdos_optados_output T                                                           
homo_plot 0                                                                     
lumo_plot 0                                                                     
homo_dens_plot -1                                                               
lumo_dens_plot -1                                                               
%BLOCK SPECIES                                                                  
C C 6 4 9.0                                                                     
%ENDBLOCK SPECIES                                                               
%BLOCK SPECIES_POT                                                              
C "~/pp/paw/c_pbe_abinit.paw"                                                   
%ENDBLOCK SPECIES_POT                                                           
%BLOCK SPECIES_ATOMIC_SET                                                       
C "SOLVE conf=2s2 2p2"                                                          
%ENDBLOCK SPECIES_ATOMIC_SET                                                    
%BLOCK LATTICE_CART                                                             
32.21  0.00  0.00                                                               
0.00 18.59  0.00                                                                
0.00  0.00 67.94                                                                
%ENDBLOCK LATTICE_CART                                                          
%BLOCK POSITIONS_ABS                                                            
C  0.00  0.00  3.40                                                             
C  0.00  0.00 16.99                                                             
C  0.00  0.00 30.58                                                             
C  0.00  0.00 44.16                                                             
C  0.00  0.00 57.75                                                             
C  0.00  4.65  3.40                                                             
C  0.00  4.65 16.99                                                             
C  0.00  4.65 30.58                                                             
C  0.00  4.65 44.16                                                             
C  0.00  4.65 57.75                                                             
C  4.03  2.32  3.40                                                             
C  4.03  2.32 16.99                                                             
C  4.03  2.32 30.58                                                             
C  4.03  2.32 44.16                                                             
C  4.03  2.32 57.75                                                             
C  8.05  0.00  3.40                                                             
C  8.05  0.00 16.99                                                             
C  8.05  0.00 30.58                                                             
C  8.05  0.00 44.16                                                             
C  8.05  0.00 57.75                                                             
C  0.00  9.30  3.40                                                             
C  0.00  9.30 16.99                                                             
C  0.00  9.30 30.58                                                             
C  0.00  9.30 44.16                                                             
C  0.00  9.30 57.75                                                             
C  4.03  6.97  3.40                                                             
C  4.03  6.97 16.99                                                             
C  4.03  6.97 30.58                                                             
C  4.03  6.97 44.16                                                             
C  4.03  6.97 57.75                                                             
C  8.05  4.65  3.40                                                             
C  8.05  4.65 16.99                                                             
C  8.05  4.65 30.58                                                             
C  8.05  4.65 44.16                                                             
C  8.05  4.65 57.75                                                             
C 12.08  2.32  3.40                                                             
C 12.08  2.32 16.99                                                             
C 12.08  2.32 30.58                                                             
C 12.08  2.32 44.16                                                             
C 12.08  2.32 57.75                                                             
C 16.10  0.00  3.40                                                             
C 16.10  0.00 16.99                                                             
C 16.10  0.00 30.58                                                             
C 16.10  0.00 44.16                                                             
C 16.10  0.00 57.75                                                             
C  0.00 13.95  3.40                                                             
C  0.00 13.95 16.99                                                             
C  0.00 13.95 30.58                                                             
C  0.00 13.95 44.16                                                             
C  0.00 13.95 57.75                                                             
C  4.03 11.62  3.40                                                             
C  4.03 11.62 16.99                                                             
C  4.03 11.62 30.58                                                             
C  4.03 11.62 44.16                                                             
C  4.03 11.62 57.75                                                             
C  8.05  9.30  3.40                                                             
C  8.05  9.30 16.99                                                             
C  8.05  9.30 30.58                                                             
C  8.05  9.30 44.16                                                             
C  8.05  9.30 57.75                                                             
C 12.08  6.97  3.40                                                             
C 12.08  6.97 16.99                                                             
C 12.08  6.97 30.58                                                             
C 12.08  6.97 44.16                                                             
C 12.08  6.97 57.75                                                             
C 16.10  4.65  3.40                                                             
C 16.10  4.65 16.99                                                             
C 16.10  4.65 30.58                                                             
C 16.10  4.65 44.16                                                             
C 16.10  4.65 57.75                                                             
C 20.13  2.32  3.40                                                             
C 20.13  2.32 16.99                                                             
C 20.13  2.32 30.58                                                             
C 20.13  2.32 44.16                                                             
C 20.13  2.32 57.75                                                             
C 24.16  0.00  3.40                                                             
C 24.16  0.00 16.99                                                             
C 24.16  0.00 30.58                                                             
C 24.16  0.00 44.16                                                             
C 24.16  0.00 57.75                                                             
C  4.03 16.27  3.40                                                             
C  4.03 16.27 16.99                                                             
C  4.03 16.27 30.58                                                             
C  4.03 16.27 44.16                                                             
C  4.03 16.27 57.75                                                             
C  8.05 13.95  3.40                                                             
C  8.05 13.95 16.99                                                             
C  8.05 13.95 30.58                                                             
C  8.05 13.95 44.16                                                             
C  8.05 13.95 57.75                                                             
C 12.08 11.62  3.40                                                             
C 12.08 11.62 16.99                                                             
C 12.08 11.62 30.58                                                             
C 12.08 11.62 44.16                                                             
C 12.08 11.62 57.75                                                             
C 16.10  9.30  3.40                                                             
C 16.10  9.30 16.99                                                             
C 16.10  9.30 30.58                                                             
C 16.10  9.30 44.16                                                             
C 16.10  9.30 57.75                                                             
C 20.13  6.97  3.40                                                             
C 20.13  6.97 16.99                                                             
C 20.13  6.97 30.58                                                             
C 20.13  6.97 44.16                                                             
C 20.13  6.97 57.75                                                             
C 24.16  4.65  3.40                                                             
C 24.16  4.65 16.99                                                             
C 24.16  4.65 30.58                                                             
C 24.16  4.65 44.16                                                             
C 24.16  4.65 57.75                                                             
C 28.18  2.32  3.40                                                             
C 28.18  2.32 16.99                                                             
C 28.18  2.32 30.58                                                             
C 28.18  2.32 44.16                                                             
C 28.18  2.32 57.75                                                             
C 12.08 16.27  3.40                                                             
C 12.08 16.27 16.99                                                             
C 12.08 16.27 30.58                                                             
C 12.08 16.27 44.16                                                             
C 12.08 16.27 57.75                                                             
C 16.10 13.95  3.40                                                             
C 16.10 13.95 16.99                                                             
C 16.10 13.95 30.58                                                             
C 16.10 13.95 44.16                                                             
C 16.10 13.95 57.75                                                             
C 20.13 11.62  3.40                                                             
C 20.13 11.62 16.99                                                             
C 20.13 11.62 30.58                                                             
C 20.13 11.62 44.16                                                             
C 20.13 11.62 57.75                                                             
C 24.16  9.30  3.40                                                             
C 24.16  9.30 16.99                                                             
C 24.16  9.30 30.58                                                             
C 24.16  9.30 44.16                                                             
C 24.16  9.30 57.75                                                             
C 28.18  6.97  3.40                                                             
C 28.18  6.97 16.99                                                             
C 28.18  6.97 30.58                                                             
C 28.18  6.97 44.16                                                             
C 28.18  6.97 57.75                                                             
C 20.13 16.27  3.40                                                             
C 20.13 16.27 16.99                                                             
C 20.13 16.27 30.58                                                             
C 20.13 16.27 44.16                                                             
C 20.13 16.27 57.75                                                             
C 24.16 13.95  3.40                                                             
C 24.16 13.95 16.99                                                             
C 24.16 13.95 30.58                                                             
C 24.16 13.95 44.16                                                             
C 24.16 13.95 57.75                                                             
C 28.18 11.62  3.40                                                             
C 28.18 11.62 16.99                                                             
C 28.18 11.62 30.58                                                             
C 28.18 11.62 44.16                                                             
C 28.18 11.62 57.75                                                             
C 28.18 16.27  3.40                                                             
C 28.18 16.27 16.99                                                             
C 28.18 16.27 30.58                                                             
C 28.18 16.27 44.16                                                             
C 28.18 16.27 57.75                                                             
C  0.00  0.00 10.19                                                             
C  0.00  0.00 23.78                                                             
C  0.00  0.00 37.37                                                             
C  0.00  0.00 50.96                                                             
C  0.00  0.00 64.55                                                             
C  0.00  4.65 10.19                                                             
C  0.00  4.65 23.78                                                             
C  0.00  4.65 37.37                                                             
C  0.00  4.65 50.96                                                             
C  0.00  4.65 64.55                                                             
C  4.03  2.32 10.19                                                             
C  4.03  2.32 23.78                                                             
C  4.03  2.32 37.37                                                             
C  4.03  2.32 50.96                                                             
C  4.03  2.32 64.55                                                             
C  8.05  0.00 10.19                                                             
C  8.05  0.00 23.78                                                             
C  8.05  0.00 37.37                                                             
C  8.05  0.00 50.96                                                             
C  8.05  0.00 64.55                                                             
C  0.00  9.30 10.19                                                             
C  0.00  9.30 23.78                                                             
C  0.00  9.30 37.37                                                             
C  0.00  9.30 50.96                                                             
C  0.00  9.30 64.55                                                             
C  4.03  6.97 10.19                                                             
C  4.03  6.97 23.78                                                             
C  4.03  6.97 37.37                                                             
C  4.03  6.97 50.96                                                             
C  4.03  6.97 64.55                                                             
C  8.05  4.65 10.19                                                             
C  8.05  4.65 23.78                                                             
C  8.05  4.65 37.37                                                             
C  8.05  4.65 50.96                                                             
C  8.05  4.65 64.55                                                             
C 12.08  2.32 10.19                                                             
C 12.08  2.32 23.78                                                             
C 12.08  2.32 37.37                                                             
C 12.08  2.32 50.96                                                             
C 12.08  2.32 64.55                                                             
C 16.10  0.00 10.19                                                             
C 16.10  0.00 23.78                                                             
C 16.10  0.00 37.37                                                             
C 16.10  0.00 50.96                                                             
C 16.10  0.00 64.55                                                             
C  0.00 13.95 10.19                                                             
C  0.00 13.95 23.78                                                             
C  0.00 13.95 37.37                                                             
C  0.00 13.95 50.96                                                             
C  0.00 13.95 64.55                                                             
C  4.03 11.62 10.19                                                             
C  4.03 11.62 23.78                                                             
C  4.03 11.62 37.37                                                             
C  4.03 11.62 50.96                                                             
C  4.03 11.62 64.55                                                             
C  8.05  9.30 10.19                                                             
C  8.05  9.30 23.78                                                             
C  8.05  9.30 37.37                                                             
C  8.05  9.30 50.96                                                             
C  8.05  9.30 64.55                                                             
C 12.08  6.97 10.19                                                             
C 12.08  6.97 23.78                                                             
C 12.08  6.97 37.37                                                             
C 12.08  6.97 50.96                                                             
C 12.08  6.97 64.55                                                             
C 16.10  4.65 10.19                                                             
C 16.10  4.65 23.78                                                             
C 16.10  4.65 37.37                                                             
C 16.10  4.65 50.96                                                             
C 16.10  4.65 64.55                                                             
C 20.13  2.32 10.19                                                             
C 20.13  2.32 23.78                                                             
C 20.13  2.32 37.37                                                             
C 20.13  2.32 50.96                                                             
C 20.13  2.32 64.55                                                             
C 24.16  0.00 10.19                                                             
C 24.16  0.00 23.78                                                             
C 24.16  0.00 37.37                                                             
C 24.16  0.00 50.96                                                             
C 24.16  0.00 64.55                                                             
C  4.03 16.27 10.19                                                             
C  4.03 16.27 23.78                                                             
C  4.03 16.27 37.37                                                             
C  4.03 16.27 50.96                                                             
C  4.03 16.27 64.55                                                             
C  8.05 13.95 10.19                                                             
C  8.05 13.95 23.78                                                             
C  8.05 13.95 37.37                                                             
C  8.05 13.95 50.96                                                             
C  8.05 13.95 64.55                                                             
C 12.08 11.62 10.19                                                             
C 12.08 11.62 23.78                                                             
C 12.08 11.62 37.37                                                             
C 12.08 11.62 50.96                                                             
C 12.08 11.62 64.55                                                             
C 16.10  9.30 10.19                                                             
C 16.10  9.30 23.78                                                             
C 16.10  9.30 37.37                                                             
C 16.10  9.30 50.96                                                             
C 16.10  9.30 64.55                                                             
C 20.13  6.97 10.19                                                             
C 20.13  6.97 23.78                                                             
C 20.13  6.97 37.37                                                             
C 20.13  6.97 50.96                                                             
C 20.13  6.97 64.55                                                             
C 24.16  4.65 10.19                                                             
C 24.16  4.65 23.78                                                             
C 24.16  4.65 37.37                                                             
C 24.16  4.65 50.96                                                             
C 24.16  4.65 64.55                                                             
C 28.18  2.32 10.19                                                             
C 28.18  2.32 23.78                                                             
C 28.18  2.32 37.37                                                             
C 28.18  2.32 50.96                                                             
C 28.18  2.32 64.55                                                             
C 12.08 16.27 10.19                                                             
C 12.08 16.27 23.78                                                             
C 12.08 16.27 37.37                                                             
C 12.08 16.27 50.96                                                             
C 12.08 16.27 64.55                                                             
C 16.10 13.95 10.19                                                             
C 16.10 13.95 23.78                                                             
C 16.10 13.95 37.37                                                             
C 16.10 13.95 50.96                                                             
C 16.10 13.95 64.55                                                             
C 20.13 11.62 10.19                                                             
C 20.13 11.62 23.78                                                             
C 20.13 11.62 37.37                                                             
C 20.13 11.62 50.96                                                             
C 20.13 11.62 64.55                                                             
C 24.16  9.30 10.19                                                             
C 24.16  9.30 23.78                                                             
C 24.16  9.30 37.37                                                             
C 24.16  9.30 50.96                                                             
C 24.16  9.30 64.55                                                             
C 28.18  6.97 10.19                                                             
C 28.18  6.97 23.78                                                             
C 28.18  6.97 37.37                                                             
C 28.18  6.97 50.96                                                             
C 28.18  6.97 64.55                                                             
C 20.13 16.27 10.19                                                             
C 20.13 16.27 23.78                                                             
C 20.13 16.27 37.37                                                             
C 20.13 16.27 50.96                                                             
C 20.13 16.27 64.55                                                             
C 24.16 13.95 10.19                                                             
C 24.16 13.95 23.78                                                             
C 24.16 13.95 37.37                                                             
C 24.16 13.95 50.96                                                             
C 24.16 13.95 64.55                                                             
C 28.18 11.62 10.19                                                             
C 28.18 11.62 23.78                                                             
C 28.18 11.62 37.37                                                             
C 28.18 11.62 50.96                                                             
C 28.18 11.62 64.55                                                             
C 28.18 16.27 10.19                                                             
C 28.18 16.27 23.78                                                             
C 28.18 16.27 37.37                                                             
C 28.18 16.27 50.96                                                             
C 28.18 16.27 64.55                                                             
C  1.34  2.32  3.40                                                             
C  1.34  2.32 16.99                                                             
C  1.34  2.32 30.58                                                             
C  1.34  2.32 44.16                                                             
C  1.34  2.32 57.75                                                             
C  5.37  0.00  3.40                                                             
C  5.37  0.00 16.99                                                             
C  5.37  0.00 30.58                                                             
C  5.37  0.00 44.16                                                             
C  5.37  0.00 57.75                                                             
C  1.34  6.97  3.40                                                             
C  1.34  6.97 16.99                                                             
C  1.34  6.97 30.58                                                             
C  1.34  6.97 44.16                                                             
C  1.34  6.97 57.75                                                             
C  5.37  4.65  3.40                                                             
C  5.37  4.65 16.99                                                             
C  5.37  4.65 30.58                                                             
C  5.37  4.65 44.16                                                             
C  5.37  4.65 57.75                                                             
C  9.39  2.32  3.40                                                             
C  9.39  2.32 16.99                                                             
C  9.39  2.32 30.58                                                             
C  9.39  2.32 44.16                                                             
C  9.39  2.32 57.75                                                             
C 13.42  0.00  3.40                                                             
C 13.42  0.00 16.99                                                             
C 13.42  0.00 30.58                                                             
C 13.42  0.00 44.16                                                             
C 13.42  0.00 57.75                                                             
C  1.34 11.62  3.40                                                             
C  1.34 11.62 16.99                                                             
C  1.34 11.62 30.58                                                             
C  1.34 11.62 44.16                                                             
C  1.34 11.62 57.75                                                             
C  5.37  9.30  3.40                                                             
C  5.37  9.30 16.99                                                             
C  5.37  9.30 30.58                                                             
C  5.37  9.30 44.16                                                             
C  5.37  9.30 57.75                                                             
C  9.39  6.97  3.40                                                             
C  9.39  6.97 16.99                                                             
C  9.39  6.97 30.58                                                             
C  9.39  6.97 44.16                                                             
C  9.39  6.97 57.75                                                             
C 13.42  4.65  3.40                                                             
C 13.42  4.65 16.99                                                             
C 13.42  4.65 30.58                                                             
C 13.42  4.65 44.16                                                             
C 13.42  4.65 57.75                                                             
C 17.45  2.32  3.40                                                             
C 17.45  2.32 16.99                                                             
C 17.45  2.32 30.58                                                             
C 17.45  2.32 44.16                                                             
C 17.45  2.32 57.75                                                             
C 21.47  0.00  3.40                                                             
C 21.47  0.00 16.99                                                             
C 21.47  0.00 30.58                                                             
C 21.47  0.00 44.16                                                             
C 21.47  0.00 57.75                                                             
C  1.34 16.27  3.40                                                             
C  1.34 16.27 16.99                                                             
C  1.34 16.27 30.58                                                             
C  1.34 16.27 44.16                                                             
C  1.34 16.27 57.75                                                             
C  5.37 13.95  3.40                                                             
C  5.37 13.95 16.99                                                             
C  5.37 13.95 30.58                                                             
C  5.37 13.95 44.16                                                             
C  5.37 13.95 57.75                                                             
C  9.39 11.62  3.40                                                             
C  9.39 11.62 16.99                                                             
C  9.39 11.62 30.58                                                             
C  9.39 11.62 44.16                                                             
C  9.39 11.62 57.75                                                             
C 13.42  9.30  3.40                                                             
C 13.42  9.30 16.99                                                             
C 13.42  9.30 30.58                                                             
C 13.42  9.30 44.16                                                             
C 13.42  9.30 57.75                                                             
C 17.45  6.97  3.40                                                             
C 17.45  6.97 16.99                                                             
C 17.45  6.97 30.58                                                             
C 17.45  6.97 44.16                                                             
C 17.45  6.97 57.75                                                             
C 21.47  4.65  3.40                                                             
C 21.47  4.65 16.99                                                             
C 21.47  4.65 30.58                                                             
C 21.47  4.65 44.16                                                             
C 21.47  4.65 57.75                                                             
C 25.50  2.32  3.40                                                             
C 25.50  2.32 16.99                                                             
C 25.50  2.32 30.58                                                             
C 25.50  2.32 44.16                                                             
C 25.50  2.32 57.75                                                             
C 29.52  0.00  3.40                                                             
C 29.52  0.00 16.99                                                             
C 29.52  0.00 30.58                                                             
C 29.52  0.00 44.16                                                             
C 29.52  0.00 57.75                                                             
C  9.39 16.27  3.40                                                             
C  9.39 16.27 16.99                                                             
C  9.39 16.27 30.58                                                             
C  9.39 16.27 44.16                                                             
C  9.39 16.27 57.75                                                             
C 13.42 13.95  3.40                                                             
C 13.42 13.95 16.99                                                             
C 13.42 13.95 30.58                                                             
C 13.42 13.95 44.16                                                             
C 13.42 13.95 57.75                                                             
C 17.45 11.62  3.40                                                             
C 17.45 11.62 16.99                                                             
C 17.45 11.62 30.58                                                             
C 17.45 11.62 44.16                                                             
C 17.45 11.62 57.75                                                             
C 21.47  9.30  3.40                                                             
C 21.47  9.30 16.99                                                             
C 21.47  9.30 30.58                                                             
C 21.47  9.30 44.16                                                             
C 21.47  9.30 57.75                                                             
C 25.50  6.97  3.40                                                             
C 25.50  6.97 16.99                                                             
C 25.50  6.97 30.58                                                             
C 25.50  6.97 44.16                                                             
C 25.50  6.97 57.75                                                             
C 29.52  4.65  3.40                                                             
C 29.52  4.65 16.99                                                             
C 29.52  4.65 30.58                                                             
C 29.52  4.65 44.16                                                             
C 29.52  4.65 57.75                                                             
C 17.45 16.27  3.40                                                             
C 17.45 16.27 16.99                                                             
C 17.45 16.27 30.58                                                             
C 17.45 16.27 44.16                                                             
C 17.45 16.27 57.75                                                             
C 21.47 13.95  3.40                                                             
C 21.47 13.95 16.99                                                             
C 21.47 13.95 30.58                                                             
C 21.47 13.95 44.16                                                             
C 21.47 13.95 57.75                                                             
C 25.50 11.62  3.40                                                             
C 25.50 11.62 16.99                                                             
C 25.50 11.62 30.58                                                             
C 25.50 11.62 44.16                                                             
C 25.50 11.62 57.75                                                             
C 29.52  9.30  3.40                                                             
C 29.52  9.30 16.99                                                             
C 29.52  9.30 30.58                                                             
C 29.52  9.30 44.16                                                             
C 29.52  9.30 57.75                                                             
C 25.50 16.27  3.40                                                             
C 25.50 16.27 16.99                                                             
C 25.50 16.27 30.58                                                             
C 25.50 16.27 44.16                                                             
C 25.50 16.27 57.75                                                             
C 29.52 13.95  3.40                                                             
C 29.52 13.95 16.99                                                             
C 29.52 13.95 30.58                                                             
C 29.52 13.95 44.16                                                             
C 29.52 13.95 57.75                                                             
C  2.68  0.00 10.19                                                             
C  2.68  0.00 23.78                                                             
C  2.68  0.00 37.37                                                             
C  2.68  0.00 50.96                                                             
C  2.68  0.00 64.55                                                             
C  2.68  4.65 10.19                                                             
C  2.68  4.65 23.78                                                             
C  2.68  4.65 37.37                                                             
C  2.68  4.65 50.96                                                             
C  2.68  4.65 64.55                                                             
C  6.71  2.32 10.19                                                             
C  6.71  2.32 23.78                                                             
C  6.71  2.32 37.37                                                             
C  6.71  2.32 50.96                                                             
C  6.71  2.32 64.55                                                             
C 10.74  0.00 10.19                                                             
C 10.74  0.00 23.78                                                             
C 10.74  0.00 37.37                                                             
C 10.74  0.00 50.96                                                             
C 10.74  0.00 64.55                                                             
C  2.68  9.30 10.19                                                             
C  2.68  9.30 23.78                                                             
C  2.68  9.30 37.37                                                             
C  2.68  9.30 50.96                                                             
C  2.68  9.30 64.55                                                             
C  6.71  6.97 10.19                                                             
C  6.71  6.97 23.78                                                             
C  6.71  6.97 37.37                                                             
C  6.71  6.97 50.96                                                             
C  6.71  6.97 64.55                                                             
C 10.74  4.65 10.19                                                             
C 10.74  4.65 23.78                                                             
C 10.74  4.65 37.37                                                             
C 10.74  4.65 50.96                                                             
C 10.74  4.65 64.55                                                             
C 14.76  2.32 10.19                                                             
C 14.76  2.32 23.78                                                             
C 14.76  2.32 37.37                                                             
C 14.76  2.32 50.96                                                             
C 14.76  2.32 64.55                                                             
C 18.79  0.00 10.19                                                             
C 18.79  0.00 23.78                                                             
C 18.79  0.00 37.37                                                             
C 18.79  0.00 50.96                                                             
C 18.79  0.00 64.55                                                             
C  2.68 13.95 10.19                                                             
C  2.68 13.95 23.78                                                             
C  2.68 13.95 37.37                                                             
C  2.68 13.95 50.96                                                             
C  2.68 13.95 64.55                                                             
C  6.71 11.62 10.19                                                             
C  6.71 11.62 23.78                                                             
C  6.71 11.62 37.37                                                             
C  6.71 11.62 50.96                                                             
C  6.71 11.62 64.55                                                             
C 10.74  9.30 10.19                                                             
C 10.74  9.30 23.78                                                             
C 10.74  9.30 37.37                                                             
C 10.74  9.30 50.96                                                             
C 10.74  9.30 64.55                                                             
C 14.76  6.97 10.19                                                             
C 14.76  6.97 23.78                                                             
C 14.76  6.97 37.37                                                             
C 14.76  6.97 50.96                                                             
C 14.76  6.97 64.55                                                             
C 18.79  4.65 10.19                                                             
C 18.79  4.65 23.78                                                             
C 18.79  4.65 37.37                                                             
C 18.79  4.65 50.96                                                             
C 18.79  4.65 64.55                                                             
C 22.81  2.32 10.19                                                             
C 22.81  2.32 23.78                                                             
C 22.81  2.32 37.37                                                             
C 22.81  2.32 50.96                                                             
C 22.81  2.32 64.55                                                             
C 26.84  0.00 10.19                                                             
C 26.84  0.00 23.78                                                             
C 26.84  0.00 37.37                                                             
C 26.84  0.00 50.96                                                             
C 26.84  0.00 64.55                                                             
C  6.71 16.27 10.19                                                             
C  6.71 16.27 23.78                                                             
C  6.71 16.27 37.37                                                             
C  6.71 16.27 50.96                                                             
C  6.71 16.27 64.55                                                             
C 10.74 13.95 10.19                                                             
C 10.74 13.95 23.78                                                             
C 10.74 13.95 37.37                                                             
C 10.74 13.95 50.96                                                             
C 10.74 13.95 64.55                                                             
C 14.76 11.62 10.19                                                             
C 14.76 11.62 23.78                                                             
C 14.76 11.62 37.37                                                             
C 14.76 11.62 50.96                                                             
C 14.76 11.62 64.55                                                             
C 18.79  9.30 10.19                                                             
C 18.79  9.30 23.78                                                             
C 18.79  9.30 37.37                                                             
C 18.79  9.30 50.96                                                             
C 18.79  9.30 64.55                                                             
C 22.81  6.97 10.19                                                             
C 22.81  6.97 23.78                                                             
C 22.81  6.97 37.37                                                             
C 22.81  6.97 50.96                                                             
C 22.81  6.97 64.55                                                             
C 26.84  4.65 10.19                                                             
C 26.84  4.65 23.78                                                             
C 26.84  4.65 37.37                                                             
C 26.84  4.65 50.96                                                             
C 26.84  4.65 64.55                                                             
C 30.86  2.32 10.19                                                             
C 30.86  2.32 23.78                                                             
C 30.86  2.32 37.37                                                             
C 30.86  2.32 50.96                                                             
C 30.86  2.32 64.55                                                             
C 14.76 16.27 10.19                                                             
C 14.76 16.27 23.78                                                             
C 14.76 16.27 37.37                                                             
C 14.76 16.27 50.96                                                             
C 14.76 16.27 64.55                                                             
C 18.79 13.95 10.19                                                             
C 18.79 13.95 23.78                                                             
C 18.79 13.95 37.37                                                             
C 18.79 13.95 50.96                                                             
C 18.79 13.95 64.55                                                             
C 22.81 11.62 10.19                                                             
C 22.81 11.62 23.78                                                             
C 22.81 11.62 37.37                                                             
C 22.81 11.62 50.96                                                             
C 22.81 11.62 64.55                                                             
C 26.84  9.30 10.19                                                             
C 26.84  9.30 23.78                                                             
C 26.84  9.30 37.37                                                             
C 26.84  9.30 50.96                                                             
C 26.84  9.30 64.55                                                             
C 30.86  6.97 10.19                                                             
C 30.86  6.97 23.78                                                             
C 30.86  6.97 37.37                                                             
C 30.86  6.97 50.96                                                             
C 30.86  6.97 64.55                                                             
C 22.81 16.27 10.19                                                             
C 22.81 16.27 23.78                                                             
C 22.81 16.27 37.37                                                             
C 22.81 16.27 50.96                                                             
C 22.81 16.27 64.55                                                             
C 26.84 13.95 10.19                                                             
C 26.84 13.95 23.78                                                             
C 26.84 13.95 37.37                                                             
C 26.84 13.95 50.96                                                             
C 26.84 13.95 64.55                                                             
C 30.86 11.62 10.19                                                             
C 30.86 11.62 23.78                                                             
C 30.86 11.62 37.37                                                             
C 30.86 11.62 50.96                                                             
C 30.86 11.62 64.55                                                             
C 30.86 16.27 10.19                                                             
C 30.86 16.27 23.78                                                             
C 30.86 16.27 37.37                                                             
C 30.86 16.27 50.96                                                             
C 30.86 16.27 64.55                                                             
%ENDBLOCK POSITIONS_ABS                                                         

--------------------------------------------------------------------------------
-------------------------------- END INPUT FILE --------------------------------
--------------------------------------------------------------------------------


 
<<<<<<<<<<<<<<<<<<<<<<<<<<<<<<<<< Full system >>>>>>>>>>>>>>>>>>>>>>>>>>>>>>>>>>
<<<<<<<<<<<<<<<<<<<<<<<<<<< PAW Dataset information >>>>>>>>>>>>>>>>>>>>>>>>>>>
File: ~/pp/paw/c_pbe_abinit.paw; rc = 1.25 bohr; shape type =  3; rshape = 1.25 bohr;
  Atomic number:  6;  ionic charge:  4.000000
    Partial Wave 1: l = 0
    Partial Wave 2: l = 0
    Partial Wave 3: l = 1
    Partial Wave 4: l = 1
  Core charge supplied for Nonlinear Core Corrections
<<<<<<<<<<<<<<<<<<<<<<<<<<<<<<<<<<<<<<< >>>>>>>>>>>>>>>>>>>>>>>>>>>>>>>>>>>>>>>

-------------------------- Atom counting information ---------------------------
Symbol    Natoms    Nngwfs    Nprojs
  C        640      2560      5120
.......   ......    ......    ......
Totals:    640      2560      5120
--------------------------------------------------------------------------------

=============================== PSINC grid sizes ===============================
                      Simulation cell:   63 x  35 x 134
                              FFT-box:   63 x  35 x 117
                                  PPD:    7 x   5 x   1
Grid space d1=  0.511269841270a0 (KE cutoff=  29.06054Eh = 790.77748eV)
Grid space d2=  0.531142857143a0 (KE cutoff=  26.92659Eh = 732.70972eV)
Grid space d3=  0.507014925373a0 (KE cutoff=  29.55034Eh = 804.10572eV)
================================================================================
  
WARNING in cell_grid_distribute:
Average of less than one 23-slab per node, so workload cannot be
equally balanced between nodes.

********************* Fourier parallelisation information **********************
       Coarse grid (whole simulation cell) dimensions:     63    35   134
          Real-space ('12') slabs/node (min max mean):      3     4     3
         Recip-space ('23') slabs/node (min max mean):      0     1     0
********************************************************************************

********************* Fourier parallelisation information **********************
       Double grid (whole simulation cell) dimensions:    126    70   268
          Real-space ('12') slabs/node (min max mean):      6     7     6
         Recip-space ('23') slabs/node (min max mean):      1     2     1
********************************************************************************

Atom SCF Calculation for C  : Z (AE atom) =   6 : Z (PS atom) =   4
Config String: 2s2 2p2
Orbitals (num,occ):  2     2.00 2.00
Orbitals   (num,l):  2        0    1
Real-space Grid (nr,dr,rmax): 1293    0.0069659443    9.0000000000
Spherical Bessel Basis (nsws,lmax,cutoff):   37    2  161.4736382572
Confining potential (l,width,scale):  0    3.0000000000  100.0000000000
Confining potential (l,width,scale):  1    3.0000000000  100.0000000000
  1         -5.4795203654   -1.3252209296    4.5135257941   -1.6370402169
  2         -5.4480859746   -1.4027979239    4.4305951748   -1.6109819005
  3         -5.4553164790   -1.4212834043    4.4102618304   -1.6059039466
  4         -5.4627841133   -1.4247091338    4.4065122085   -1.6052907585
  5         -5.4662306655   -1.4266814823    4.4043715292   -1.6049352647
  6         -5.4679520247   -1.4277352742    4.4032348712   -1.6047493439
  7         -5.4688359568   -1.4282868030    4.4026432892   -1.6046541449
  8         -5.4692951245   -1.4285734530    4.4023374832   -1.6046056242
  9         -5.4695349887   -1.4287220785    4.4021797781   -1.6045809101
 10         -5.4696606791   -1.4287991022    4.4020984905   -1.6045683155
 11         -5.4697266650   -1.4288390363    4.4020565747   -1.6045618912
 12         -5.4697613504   -1.4288597596    4.4020349416   -1.6045586107
 13         -5.4697795998   -1.4288705262    4.4020237638   -1.6045569335
 14         -5.4697892089   -1.4288761271    4.4020179806   -1.6045560749
 15         -5.4697942720   -1.4288790448    4.4020149844   -1.6045556348
 16         -5.4697969415   -1.4288805668    4.4020134298   -1.6045554088
 17         -5.4697983498   -1.4288813619    4.4020126220   -1.6045552927
 18         -5.4697990933   -1.4288817779    4.4020122017   -1.6045552329
 19         -5.4697994860   -1.4288819957    4.4020119826   -1.6045552021
 20         -5.4697996936   -1.4288821100    4.4020118683   -1.6045551862
 21         -5.4697998034   -1.4288821701    4.4020118085   -1.6045551780
 22         -5.4697998614   -1.4288822017    4.4020117772   -1.6045551737
Atom SCF converged after  22 iterations to a total energy of     -5.46979986

Determining parallel strategy ...
... using space-filling curve
... NGWF load balancing: max     64;  min     64;  average     64
... Projector load balancing: max    128;  min    128;  average    128
... done
Calculating Ewald energy ...
              Ewald: real-space energy =    9483.351908
        Ewald: reciprocal-space energy =       0.212599
         Ewald: (sum_charge)**2 Energy =   11055.830996
         Ewald: (sum_charge**2) Energy =     874.040184
                          Ewald Energy =   -2446.306672
Basis initialisation ...... NGWF spheres initialised
... Projector spheres initialised
... NGWF tight boxes initialised
... Projector tight boxes initialised
... Tight-boxes gathered
... NGWF basis size (local,global):     693332  27908448
... PAW projector initialisation
... done

============================= Charge Augmentation ==============================
                           Aug box size:   11 x  11 x  11
================================================================================

========================== Sparse matrix information ===========================
                        Overlap matrix filling:  42.19%
                        Density kernel filling: 100.00%
              NGWF-Proj overlap matrix filling:  12.19%
                    Aug Overlap matrix filling:  47.03%
                    Hamiltonian matrix filling:  47.03%
                  NGWF diagonal matrix filling:   0.16%
                             KS matrix filling: 100.00% 
                           KSKS matrix filling: 100.00% 
================================================================================

Sparse matrix initialisation ... done
NGWF initialisation ...... done
============ Calculation of NGWF S^-1 using Hotelling algorithm ================ 
         Iteration  |  Frobenius norm and Maximum abs value    (of I-S*S_n^-1)   
               1       0.49029266E+02     0.97559012E+00
               2       0.47781982E+02     0.95303010E+00
               3       0.45919018E+02     0.91254833E+00
               4       0.43514764E+02     0.84557317E+00
               5       0.40642489E+02     0.74644075E+00
               6       0.37306935E+02     0.67801789E+00
               7       0.33833960E+02     0.63039218E+00
               8       0.30515539E+02     0.59024657E+00
               9       0.26953251E+02     0.54593026E+00
              10       0.22436538E+02     0.47622540E+00
              11       0.16550394E+02     0.36578311E+00
              12       0.97798859E+01     0.22092964E+00
              13       0.39109527E+01     0.86108152E-01
              14       0.75031386E+00     0.15068487E-01
              15       0.33253936E-01     0.57082623E-03
              16       0.85988541E-04     0.10780093E-05
              17       0.87815257E-09     0.66122663E-11
              18       0.73330335E-13     0.35527137E-14
================================================================================
Calculating core density ...
================================= Core Density =================================
               Core den box size:   21 x  21 x  21
================================================================================
 ... done
Up spin density kernel initialisation ...... done

Writing density kernel to file "3.5954808_GO_manual_4x64graphite.dkn" ... done

>>> Optimising kernel for current NGWFs:

--------------------------- Ensemble-DFT optimisation --------------------------
Running ScaLAPACK on   40 processor(s).

--------------------------------------------------------------------------------
  Iter                              Commutator    Free_energy(A=E-TS)     DeltaA
#    0                          0.000034651539   -3649.57919977435267  -3.65E+03

Step                       =       0.381966011250
Energy                     =   -3649.579172038528
Entropy (-TS)              =      -0.000027735766
Free energy (A=E-TS)       =   -3649.579199774353
Est. 0K Energy 0.5*(E+A)   =   -3649.579185906440
Residual Non-orthogonality =       0.000000000000
Residual N_electrons       =      -0.000000000058

Spin          Integrated_Ne            Fermi_level     Delta_Fermi_level
   1      2560.000000000326         0.179281808768              1.79E-01

                           Spin 1          
     Orb      H-eigenvalues     Occupancies
       1 |    -0.5446868003    1.0000000000 | 
                          ------
    1276 |     0.1445935420    0.9999825069 | 
    1277 |     0.1452093616    0.9999787520 | 
    1278 |     0.1452219614    0.9999786673 | 
    1279 |     0.1454819222    0.9999768423 | 
    1280 |     0.1461090630    0.9999717708 | 
                 - Gap at zero temperature -
    1281 |     0.2150247366    0.0000125381 | 
    1282 |     0.2150425989    0.0000124676 | 
    1283 |     0.2150609621    0.0000123955 | 
    1284 |     0.2152174075    0.0000117980 | 
    1285 |     0.2152356029    0.0000117305 | 
                          ------
    2560 |     1.0134952287    0.0000000000 | 

                       |  Abs_value |  Threshold | Converged
     Delta_Free_energy |   3.65E+03 |   1.00E-06 |        No
     Delta_Energy      |   3.65E+03 |   1.00E-04 |        No
     Delta_Entropy     |   2.77E-05 |   1.00E-04 |       Yes
     Commutator        |   3.47E-05 |   1.00E-05 |        No
     Delta_Fermi_level |   1.79E-01 |   1.00E-03 |        No

  Line search of the free energy minimum:
  Step_type        Step             Free_energy   Predicted_free_energy
.   Initial    0.000000    -3649.57919977435267
.    Trial1    0.381966    -3649.58047369215046
.    Trial2    0.618034    -3649.58065770390613
. Quadratic    0.594251    -3649.58065995306606    -3649.58066004290549

--------------------------------------------------------------------------------
  Iter                              Commutator    Free_energy(A=E-TS)     DeltaA
#    1                          0.000019722325   -3649.58065995306606  -1.46E-03

Step                       =       0.594250884630
Energy                     =   -3649.580632605681
Entropy (-TS)              =      -0.000027346939
Free energy (A=E-TS)       =   -3649.580659953066
Est. 0K Energy 0.5*(E+A)   =   -3649.580646279373
Residual Non-orthogonality =       0.000000000000
Residual N_electrons       =      -0.000000000446

Spin          Integrated_Ne            Fermi_level     Delta_Fermi_level
   1      2560.000000002491         0.179142635326             -1.39E-04

                           Spin 1          
     Orb      H-eigenvalues     Occupancies
       1 |    -0.5464674507    1.0000000000 | 
                          ------
    1276 |     0.1444952545    0.9999822796 | 
    1277 |     0.1449443776    0.9999795796 | 
    1278 |     0.1449672697    0.9999794315 | 
    1279 |     0.1453817628    0.9999765553 | 
    1280 |     0.1458523490    0.9999727993 | 
                 - Gap at zero temperature -
    1281 |     0.2148654468    0.0000126180 | 
    1282 |     0.2149031405    0.0000124687 | 
    1283 |     0.2149115645    0.0000124356 | 
    1284 |     0.2150559801    0.0000118812 | 
    1285 |     0.2150864701    0.0000117674 | 
                          ------
    2560 |     1.0130211051    0.0000000000 | 

                       |  Abs_value |  Threshold | Converged
     Delta_Free_energy |   1.46E-03 |   1.00E-06 |        No
     Delta_Energy      |   1.46E-03 |   1.00E-04 |        No
     Delta_Entropy     |   3.89E-07 |   1.00E-04 |       Yes
     Commutator        |   1.97E-05 |   1.00E-05 |        No
     Delta_Fermi_level |   1.39E-04 |   1.00E-03 |       Yes

  Line search of the free energy minimum:
  Step_type        Step             Free_energy   Predicted_free_energy
.   Initial    0.000000    -3649.58065995306606
.    Trial1    0.594251    -3649.58035010462572
.    Trial2    0.226984    -3649.58100672054206
. Quadratic    0.250399    -3649.58100973867795    -3649.58100977962658

--------------------------------------------------------------------------------
  Iter                              Commutator    Free_energy(A=E-TS)     DeltaA
#    2                          0.000010546085   -3649.58100973867795  -3.50E-04

Step                       =       0.250399065321
Energy                     =   -3649.580982474991
Entropy (-TS)              =      -0.000027263531
Free energy (A=E-TS)       =   -3649.581009738678
Est. 0K Energy 0.5*(E+A)   =   -3649.580996106834
Residual Non-orthogonality =       0.000000000000
Residual N_electrons       =      -0.000000000155

Spin          Integrated_Ne            Fermi_level     Delta_Fermi_level
   1      2560.000000000866         0.179115855555             -2.68E-05

                           Spin 1          
     Orb      H-eigenvalues     Occupancies
       1 |    -0.5467760341    1.0000000000 | 
                          ------
    1276 |     0.1444288408    0.9999825000 | 
    1277 |     0.1449294118    0.9999795033 | 
    1278 |     0.1449523422    0.9999793543 | 
    1279 |     0.1453138663    0.9999768577 | 
    1280 |     0.1458359580    0.9999727099 | 
                 - Gap at zero temperature -
    1281 |     0.2148672001    0.0000125048 | 
    1282 |     0.2149048675    0.0000123570 | 
    1283 |     0.2149118717    0.0000123297 | 
    1284 |     0.2150621624    0.0000117582 | 
    1285 |     0.2150928456    0.0000116448 | 
                          ------
    2560 |     1.0129300832    0.0000000000 | 

                       |  Abs_value |  Threshold | Converged
     Delta_Free_energy |   3.50E-04 |   1.00E-06 |        No
     Delta_Energy      |   3.50E-04 |   1.00E-04 |        No
     Delta_Entropy     |   8.34E-08 |   1.00E-04 |       Yes
     Commutator        |   1.05E-05 |   1.00E-05 |        No
     Delta_Fermi_level |   2.68E-05 |   1.00E-03 |       Yes

  Line search of the free energy minimum:
  Step_type        Step             Free_energy   Predicted_free_energy
.   Initial    0.000000    -3649.58100973867795
.    Trial1    0.250399    -3649.58110135041125
.    Trial2    0.536721    -3649.58110225640712
. Quadratic    0.395901    -3649.58111564330966    -3649.58111565702302

--------------------------------------------------------------------------------
  Iter                              Commutator    Free_energy(A=E-TS)     DeltaA
#    3                          0.000007226642   -3649.58111564330966  -1.06E-04

Step                       =       0.395901335127
Energy                     =   -3649.581088478354
Entropy (-TS)              =      -0.000027165133
Free energy (A=E-TS)       =   -3649.581115643310
Est. 0K Energy 0.5*(E+A)   =   -3649.581102060832
Residual Non-orthogonality =       0.000000000000
Residual N_electrons       =       0.000000000177

Spin          Integrated_Ne            Fermi_level     Delta_Fermi_level
   1      2559.999999999012         0.179082929711             -3.29E-05

                           Spin 1          
     Orb      H-eigenvalues     Occupancies
       1 |    -0.5471331246    1.0000000000 | 
                          ------
    1276 |     0.1443699425    0.9999826430 | 
    1277 |     0.1448935393    0.9999795224 | 
    1278 |     0.1449164413    0.9999793737 | 
    1279 |     0.1452541835    0.9999770524 | 
    1280 |     0.1457992842    0.9999727422 | 
                 - Gap at zero temperature -
    1281 |     0.2148542347    0.0000124263 | 
    1282 |     0.2148917904    0.0000122798 | 
    1283 |     0.2148979978    0.0000122557 | 
    1284 |     0.2150517628    0.0000116749 | 
    1285 |     0.2150824837    0.0000115622 | 
                          ------
    2560 |     1.0128421896    0.0000000000 | 

                       |  Abs_value |  Threshold | Converged
     Delta_Free_energy |   1.06E-04 |   1.00E-06 |        No
     Delta_Energy      |   1.06E-04 |   1.00E-04 |        No
     Delta_Entropy     |   9.84E-08 |   1.00E-04 |       Yes
     Commutator        |   7.23E-06 |   1.00E-05 |       Yes
     Delta_Fermi_level |   3.29E-05 |   1.00E-03 |       Yes

  Line search of the free energy minimum:
  Step_type        Step             Free_energy   Predicted_free_energy
.   Initial    0.000000    -3649.58111564330966
.    Trial1    0.395901    -3649.58114700388614
.    Trial2    0.626646    -3649.58106945137888
. Quadratic    0.257712    -3649.58115967340518    -3649.58115965997513

--------------------------------------------------------------------------------
  Iter                              Commutator    Free_energy(A=E-TS)     DeltaA
#    4                          0.000004611643   -3649.58115967340518  -4.40E-05

Step                       =       0.257711729689
Energy                     =   -3649.581132546354
[...]
 C   160 -- C   385       -0.10      5.37000
 C   159 -- C   384       -0.10      5.37000
 C   158 -- C   383       -0.10      5.37000
 C   157 -- C   382       -0.10      5.37000
 C   156 -- C   381       -0.10      5.37000
 C   155 -- C   355       -0.10      5.37000
 C   154 -- C   354       -0.10      5.37000
 C   153 -- C   353       -0.10      5.37000
 C   152 -- C   352       -0.10      5.37000
 C   151 -- C   351       -0.10      5.37000
 C   140 -- C   335       -0.10      5.37000
 C   139 -- C   334       -0.10      5.37000
 C   138 -- C   333       -0.10      5.37000
 C   137 -- C   332       -0.10      5.37000
 C   136 -- C   331       -0.10      5.37000
 C   115 -- C   325       -0.10      5.37000
 C   114 -- C   324       -0.10      5.37000
 C   113 -- C   323       -0.10      5.37000
 C   112 -- C   322       -0.10      5.37000
 C   111 -- C   321       -0.10      5.37000
 C   219 -- C   569       -0.10      5.37202
 C   218 -- C   568       -0.10      5.37202
 C   217 -- C   567       -0.10      5.37202
 C   216 -- C   566       -0.10      5.37202
 C   250 -- C   540       -0.10      5.37202
 C   249 -- C   539       -0.10      5.37202
 C   248 -- C   538       -0.10      5.37202
 C   247 -- C   537       -0.10      5.37202
 C   246 -- C   536       -0.10      5.37202
 C   220 -- C   570       -0.10      5.37202
 C   285 -- C   580       -0.10      5.37202
 C   284 -- C   579       -0.10      5.37202
 C   283 -- C   578       -0.10      5.37202
 C   282 -- C   577       -0.10      5.37202
 C   281 -- C   576       -0.10      5.37202
 C   260 -- C   605       -0.10      5.37202
 C   259 -- C   604       -0.10      5.37202
 C   258 -- C   603       -0.10      5.37202
 C   257 -- C   602       -0.10      5.37202
 C   256 -- C   601       -0.10      5.37202
 C   220 -- C   515       -0.10      5.37202
 C   219 -- C   514       -0.10      5.37202
 C   218 -- C   513       -0.10      5.37202
 C   217 -- C   512       -0.10      5.37202
 C   216 -- C   511       -0.10      5.37202
 C   195 -- C   540       -0.10      5.37202
 C   195 -- C   500       -0.10      5.37202
 C   194 -- C   539       -0.10      5.37202
 C   194 -- C   499       -0.10      5.37202
 C   193 -- C   538       -0.10      5.37202
 C   193 -- C   498       -0.10      5.37202
 C   192 -- C   537       -0.10      5.37202
 C   192 -- C   497       -0.10      5.37202
 C   191 -- C   536       -0.10      5.37202
 C   191 -- C   496       -0.10      5.37202
 C   180 -- C   515       -0.10      5.37202
 C   179 -- C   514       -0.10      5.37202
 C   178 -- C   513       -0.10      5.37202
 C   177 -- C   512       -0.10      5.37202
 C   176 -- C   511       -0.10      5.37202
 C    11 -- C   331       -0.10      5.37202
 C   205 -- C   550       -0.10      5.37202
 C   204 -- C   549       -0.10      5.37202
 C   203 -- C   548       -0.10      5.37202
 C   202 -- C   547       -0.10      5.37202
 C   201 -- C   546       -0.10      5.37202
 C    95 -- C   425       -0.10      5.37202
 C    95 -- C   365       -0.10      5.37202
 C    94 -- C   424       -0.10      5.37202
 C    94 -- C   364       -0.10      5.37202
 C    93 -- C   423       -0.10      5.37202
 C    93 -- C   363       -0.10      5.37202
 C    92 -- C   422       -0.10      5.37202
 C    92 -- C   362       -0.10      5.37202
 C    91 -- C   421       -0.10      5.37202
 C    91 -- C   361       -0.10      5.37202
 C    40 -- C   365       -0.10      5.37202
 C    39 -- C   364       -0.10      5.37202
 C    38 -- C   363       -0.10      5.37202
 C    37 -- C   362       -0.10      5.37202
 C    36 -- C   361       -0.10      5.37202
 C    15 -- C   335       -0.10      5.37202
 C    65 -- C   395       -0.10      5.37202
 C    65 -- C   345       -0.10      5.37202
 C    64 -- C   394       -0.10      5.37202
 C    64 -- C   344       -0.10      5.37202
 C    63 -- C   393       -0.10      5.37202
 C    30 -- C   355       -0.10      5.37202
 C    63 -- C   343       -0.10      5.37202
 C    62 -- C   392       -0.10      5.37202
 C    30 -- C   325       -0.10      5.37202
 C    14 -- C   334       -0.10      5.37202
 C    62 -- C   342       -0.10      5.37202
 C    61 -- C   391       -0.10      5.37202
 C    29 -- C   354       -0.10      5.37202
 C    61 -- C   341       -0.10      5.37202
 C    29 -- C   324       -0.10      5.37202
 C   260 -- C   550       -0.10      5.37202
 C   259 -- C   549       -0.10      5.37202
 C    28 -- C   353       -0.10      5.37202
 C   258 -- C   548       -0.10      5.37202
 C   257 -- C   547       -0.10      5.37202
 C   256 -- C   546       -0.10      5.37202
 C    28 -- C   323       -0.10      5.37202
 C    27 -- C   352       -0.10      5.37202
 C    13 -- C   333       -0.10      5.37202
 C    27 -- C   322       -0.10      5.37202
 C   120 -- C   395       -0.10      5.37202
 C    26 -- C   351       -0.10      5.37202
 C   119 -- C   394       -0.10      5.37202
 C   118 -- C   393       -0.10      5.37202
 C    55 -- C   335       -0.10      5.37202
 C   117 -- C   392       -0.10      5.37202
 C    26 -- C   321       -0.10      5.37202
 C   116 -- C   391       -0.10      5.37202
 C    54 -- C   334       -0.10      5.37202
 C    12 -- C   332       -0.10      5.37202
 C    53 -- C   333       -0.10      5.37202
 C   230 -- C   580       -0.10      5.37202
 C   230 -- C   525       -0.10      5.37202
 C   229 -- C   579       -0.10      5.37202
 C   229 -- C   524       -0.10      5.37202
 C   228 -- C   578       -0.10      5.37202
 C    52 -- C   332       -0.10      5.37202
 C   228 -- C   523       -0.10      5.37202
 C   227 -- C   577       -0.10      5.37202
 C   227 -- C   522       -0.10      5.37202
 C   226 -- C   576       -0.10      5.37202
 C   226 -- C   521       -0.10      5.37202
 C    51 -- C   331       -0.10      5.37202
 C    23 -- C   478       -0.10      5.37202
 C    49 -- C   469       -0.10      5.37202
 C    48 -- C   468       -0.10      5.37202
 C    47 -- C   467       -0.10      5.37202
 C    22 -- C   477       -0.10      5.37202
 C    46 -- C   466       -0.10      5.37202
 C    21 -- C   476       -0.10      5.37202
 C    85 -- C   355       -0.10      5.37202
 C    84 -- C   354       -0.10      5.37202
 C    83 -- C   353       -0.10      5.37202
 C    82 -- C   352       -0.10      5.37202
 C    81 -- C   351       -0.10      5.37202
 C    55 -- C   385       -0.10      5.37202
 C    54 -- C   384       -0.10      5.37202
 C    25 -- C   480       -0.10      5.37202
 C    53 -- C   383       -0.10      5.37202
 C    52 -- C   382       -0.10      5.37202
 C    51 -- C   381       -0.10      5.37202
 C    24 -- C   479       -0.10      5.37202
 C    50 -- C   470       -0.10      5.37202
 C    24 -- C   449       -0.10      5.37202
 C     6 -- C   416       -0.10      5.37202
 C    23 -- C   448       -0.10      5.37202
 C    22 -- C   447       -0.10      5.37202
 C    10 -- C   470       -0.10      5.37202
 C     5 -- C   450       -0.10      5.37202
 C    21 -- C   446       -0.10      5.37202
 C    10 -- C   420       -0.10      5.37202
 C     9 -- C   469       -0.10      5.37202
 C     9 -- C   419       -0.10      5.37202
 C     8 -- C   468       -0.10      5.37202
 C     4 -- C   449       -0.10      5.37202
 C   150 -- C   440       -0.10      5.37202
 C   149 -- C   439       -0.10      5.37202
 C   148 -- C   438       -0.10      5.37202
 C   147 -- C   437       -0.10      5.37202
 C     8 -- C   418       -0.10      5.37202
 C   146 -- C   436       -0.10      5.37202
 C     2 -- C   447       -0.10      5.37202
 C   135 -- C   460       -0.10      5.37202
 C     7 -- C   467       -0.10      5.37202
 C   134 -- C   459       -0.10      5.37202
 C   133 -- C   458       -0.10      5.37202
 C   132 -- C   457       -0.10      5.37202
 C   131 -- C   456       -0.10      5.37202
 C     7 -- C   417       -0.10      5.37202
 C     1 -- C   446       -0.10      5.37202
 C     6 -- C   466       -0.10      5.37202
 C    25 -- C   450       -0.10      5.37202
 C     3 -- C   448       -0.10      5.37202
 C   106 -- C   436       -0.10      5.37202
 C   106 -- C   376       -0.10      5.37202
 C    80 -- C   410       -0.10      5.37202
 C    79 -- C   409       -0.10      5.37202
 C    78 -- C   408       -0.10      5.37202
 C    77 -- C   407       -0.10      5.37202
 C    76 -- C   406       -0.10      5.37202
 C   135 -- C   410       -0.10      5.37202
 C   134 -- C   409       -0.10      5.37202
 C   133 -- C   408       -0.10      5.37202
 C   132 -- C   407       -0.10      5.37202
 C   131 -- C   406       -0.10      5.37202
 C   110 -- C   440       -0.10      5.37202
 C   110 -- C   380       -0.10      5.37202
 C   109 -- C   439       -0.10      5.37202
 C   109 -- C   379       -0.10      5.37202
 C   108 -- C   438       -0.10      5.37202
 C   108 -- C   378       -0.10      5.37202
 C   107 -- C   437       -0.10      5.37202
 C   107 -- C   377       -0.10      5.37202
 C   215 -- C   635       -0.10      5.38000
 C   214 -- C   634       -0.10      5.38000
 C   213 -- C   633       -0.10      5.38000
 C   212 -- C   632       -0.10      5.38000
 C   211 -- C   631       -0.10      5.38000
 C   190 -- C   620       -0.10      5.38000
 C   189 -- C   619       -0.10      5.38000
 C   188 -- C   618       -0.10      5.38000
 C   187 -- C   617       -0.10      5.38000
 C   186 -- C   616       -0.10      5.38000
 C   175 -- C   595       -0.10      5.38000
 C   174 -- C   594       -0.10      5.38000
 C   173 -- C   593       -0.10      5.38000
 C   172 -- C   592       -0.10      5.38000
 C   171 -- C   591       -0.10      5.38000
 C   245 -- C   640       -0.10      5.38000
 C   244 -- C   639       -0.10      5.38000
 C   243 -- C   638       -0.10      5.38000
 C   242 -- C   637       -0.10      5.38000
 C   241 -- C   636       -0.10      5.38000
==================================================


=================== Orbital energy and occupancy information ===================

      Total number of orbitals:    2560
        Occupancy sum (kernel):    1280.000000000
   Occupancy sum (eigenvalues):    1280.000000000
                 HOMO-LUMO gap:       0.000014541 Eh
                 Mid-gap level:       0.264402536 Eh

                        Orbital | Energy (Eh) | Occupancy
                            1    -0.490757369   1.0000000
                        .......   ...........   .........
                         1272     0.194165428   0.9999890
                         1273     0.194595048   0.9999874
                         1274     0.194637232   0.9999872
                         1275     0.197500950   0.9999684
                         1276     0.197509517   0.9999683
                         1277     0.197967843   0.9999634
                         1278     0.197976482   0.9999633
                         1279     0.198523833   0.9999563
                         1280     0.198986082   0.9999495
                         1281     0.264395265   0.0000212
                        ....... -- gap at 0K -- .........
                         1282     0.264409806   0.0000211
                         1283     0.264645880   0.0000195
                         1284     0.264660357   0.0000195
                         1285     0.264809009   0.0000186
                         1286     0.264819646   0.0000185
                         1287     0.265071153   0.0000171
                         1288     0.265081780   0.0000171
                         1289     0.265137974   0.0000168
                         1290     0.265304799   0.0000159
                         1291     0.265327524   0.0000157
                        .......   ...........   .........
                         2560     1.124667461   0.0000000

================================================================================

===================== Writing canonical molecular orbitals =====================
| Orbital  Energy (eV)  Norm     |
| HOMO      7.19456124  1.000000 | Writing "3.5954808_GO_manual_4x64graphite_HOMO.cube" ... done
Writing "3.5954808_GO_manual_4x64graphite_HOMO.dx" ... done
| LUMO      7.19495693  1.000000 | Writing "3.5954808_GO_manual_4x64graphite_LUMO.cube" ... done
Writing "3.5954808_GO_manual_4x64graphite_LUMO.dx" ... done
================================================================================
 
===================== Density of States (DOS) calculation ======================
Writing "3.5954808_GO_manual_4x64graphite_DOS.txt" ...  done
================================================================================
 
Writing bands to file "3.5954808_GO_manual_4x64graphite.val_bands" ... done
 
================ Projected Density of States (pDOS) calculation ================
 
Constructing AM resolved functions  ...... done
Writing NGWF plot files in formats: CUBE DX ...  done
 
Performing overlap integrals ...  done
 
Computing pDOS weights ...  done
 
All bands spilling parameter =   3.34 %
Occupancy-weighted spilling parameter =   0.92 %
 
 => Outputting data for OptaDOS <=
 
Writing pDOS weights to file "3.5954808_GO_manual_4x64graphite.val_pdos_bin" ... done
 
Writing band gradients to file "3.5954808_GO_manual_4x64graphite.val_dome_bin" ... done
 
Writing Castep output cell file to "3.5954808_GO_manual_4x64graphite-out.cell" ... done
 
 => Computing Gaussian smeared pDOS <= 
Writing "3.5954808_GO_manual_4x64graphite_PDOS.txt" ...  done
 
 => Computing Occupancy-weighted Gaussian smeared pDOS <= 
Writing "3.5954808_GO_manual_4x64graphite_occ_PDOS.txt" ...  done
  => Band centres: 
 S band centre of group 1:  -15.594455 eV
 P band centre of group 1:   -8.475477 eV
  Band centres done. <=
  => Integrated number of electrons in each AM band: 
 S num electrons of group 1:  575.492812
 P num electrons of group 1: 1961.079347
  Integrated number of electrons done. <=
================================================================================

------------------------------ TIMING INFORMATION ------------------------------
AVERAGE TIME:    3442.774s on     40 node(s)                                    
TOTAL TIME:      3442.775s on     40 node(s)                                    
================= AVERAGE TIMINGS FROM ALL NODES (CUMULATIVE) ==================
|| TAG                                    #calls    cpu time   %total  Gflops ||
|| work_imbalance                       :     1        0.00s   0.000%  ------ ||
|| paw_tcore_hartree_on_grid            :     1        0.00s   0.000%  ------ ||
|| paw_tcore_density                    :     1        0.01s   0.000%  ------ ||
|| paw_sphere_density_on_grid           :     1        0.01s   0.000%  ------ ||
|| sparse_set_to_garbage                :   147        0.03s   0.001%  ------ ||
|| paw_dij_hartree                      :   308        0.04s   0.001%  ------ ||
|| pseudo_make_structure_factor         :     1        0.06s   0.002%  ------ ||
|| basis_extract_function_from_box      :  1664        0.07s   0.002%  ------ ||
|| paw_species_calc_proj_prec_mat       :     1        0.12s   0.003%  ------ ||
|| paw_dataset_init                     :     1        0.15s   0.004%  ------ ||
|| density_init_guess_real              :     1        0.18s   0.005%  ------ ||
|| ngwfs_initialise_from_radial         :     2        0.67s   0.019%  ------ ||
|| restart_kernel_write                 :    14        0.86s   0.025%  ------ ||
|| sparse_init                          :     1        0.90s   0.026%  ------ ||
|| dense_normal_eigensolve              :     1        1.06s   0.031%  ------ ||
|| hartree_on_grid                      :   231        1.60s   0.047%  ------ ||
|| projectors_init_fftbox_recip         :   131        2.52s   0.073%  ------ ||
|| ewald_calculate_energy               :     1        2.88s   0.084%  ------ ||
|| fourier_apply_box_pair               :  2464        4.07s   0.118% 560.998 ||
|| basis_copy_function_to_box           : 21952        4.71s   0.137%  ------ ||
|| augmentation_screen_dij              :   236        5.16s   0.150%  ------ ||
|| sw_init                              :     1        6.73s   0.196%  ------ ||
|| sparse_embed_hotelling_invert_embed  :    25        7.30s   0.212%  ------ ||
|| ngwf_gradient_coeffs                 :    13        9.30s   0.270%  ------ ||
|| cell_grid_extract_box_real           :  9292       15.65s   0.454%  ------ ||
|| sparse_trace                         :  2790       16.28s   0.473%  ------ ||
|| fourier_apply_cell_backward          :  7132       19.85s   0.577%  45.435 ||
|| fourier_apply_cell_forward           :  6671       20.02s   0.581%  42.138 ||
|| cell_grid_deposit_box_real           : 29744       20.57s   0.597%  ------ ||
|| paw_dij_xc                           :   308       28.18s   0.819%  ------ ||
|| aug_nonlocal_mat                     :   295       37.45s   1.088%  ------ ||
|| augmentation_density_on_grid         :   231       39.51s   1.148%  ------ ||
|| density_fftbox_deposit_to_cell       : 14784       41.90s   1.217%  ------ ||
|| hamiltonian_energy_components        :     3       48.59s   1.411%  ------ ||
|| function_ops_brappd_ketppd           :    52       52.51s   1.525%  ------ ||
|| eigenstates_pdos                     :     1       54.22s   1.575%  ------ ||
|| projectors_func_ovlp_box             :    26       57.84s   1.680%  ------ ||
|| eigenstates_calculate                :     1       58.54s   1.700%  ------ ||
|| nlxc_vdw_energy                      :   460       77.51s   2.251%  ------ ||
|| xc_energy_potential                  :   230       78.83s   2.290%  ------ ||
|| integrals_kinetic                    :    25       84.44s   2.453%  ------ ||
|| dense_eigensolve                     :   202       97.13s   2.821%  ------ ||
|| properties_calculate                 :     1      105.35s   3.060%  ------ ||
|| sparse_product                       :  2823      110.29s   3.204%  ------ ||
|| potential_apply_to_ngwf_batch        :   292      115.71s   3.361%  ------ ||
|| restart_ngwfs_tightbox_output        :    12      170.50s   4.953%  ------ ||
|| basis_dot_function_with_box          : 6.949M     189.92s   5.516%  ------ ||
|| fourier_apply_box                    : 69104      215.25s   6.252% 976.563 ||
|| edft_diag_ngwf_ham                   :   201      220.74s   6.412%  ------ ||
|| projectors_gradient_batch            :    52      234.39s   6.808%  ------ ||
|| integrals_locpot_mat_els_batch       :   292      250.69s   7.282%  ------ ||
|| density_fftbox_interpolate_multiply  : 14784      285.98s   8.307%  ------ ||
|| projectors_grad_precond_batch        :    52      322.84s   9.377%  ------ ||
|| density_batch_interp_deposit         :   924      364.99s  10.602%  ------ ||
|| integrals_locpot_dbl_grid            :    73      367.71s  10.681%  ------ ||
|| edft_apply_smearing_operator         :   201      433.07s  12.579%  ------ ||
|| basis_add_function_to_box            : 19.56M     517.23s  15.024%  ------ ||
|| ngwf_gradient_build_batch            :    52      596.64s  17.330%  ------ ||
|| density_batch_row_sums               :   924      720.75s  20.935%  ------ ||
|| ngwf_gradient_batch                  :    52      794.85s  23.087%  ------ ||
|| ngwf_gradient_lnv                    :    13      822.15s  23.880%  ------ ||
|| density_on_dbl_grid                  :   231     1097.51s  31.879%  ------ ||
|| hamiltonian_lhxc_calculate           :   226     1192.73s  34.644%  ------ ||
|| edft_calculate                       :    13     1981.98s  57.569%  ------ ||
|| ngwf_cg_optimise                     :     1     3312.30s  96.210%  ------ ||
|| total_time                           :     1     3442.77s 100.000%  ------ ||
================================================================================
Overhead of generating timer report: 
- 0 ms averaging over threads,
- 5 ms ensuring consistency across MPI ranks,
- 0 ms printing in order.

Job completed: 25-02-2020 00:15 (-0000)

