 +---------------------------------------------------------------+
 |                                                               |
 |        ####### #     # ####### ####### ####### ######         |
 |        #     # ##    # #          #    #       #     #        |
 |        #     # # #   # #          #    #       #     #        |
 |        #     # #  #  # #####      #    #####   ######         |
 |        #     # #   # # #          #    #       #              |
 |        #     # #    ## #          #    #       #              |
 |        ####### #     # #######    #    ####### #              |
 |                                                               |
 |        Linear-Scaling Ab Initio Total Energy Program          |
 |                                                               |
 |          Release for academic collaborators of ODG            |
 |                                             Version 5.3.2.12  |
 |                                                               |
 +---------------------------------------------------------------+
 |                                                               |
 |  Authors:                                                     |
 |  Jacek Dziedzic, Peter D. Haynes, Nicholas D. M. Hine,        |
 |  Arash. A. Mostofi, Mike C. Payne and Chris-Kriton Skylaris   |
 |                                                               |
 |  Contributors:                                                |
 |  J. Aarons, L. Andrinopoulos, P. W. Avraam, R. A. Bell,       |
 |  A. Bhandari, G. A. Bramley, R. J. Charlton, S. J. Clark,     |
 |  R. J. Clements, G. C. Constantinescu, F. Corsetti,           |
 |  N. Corsini, O. Dieguez, S. M. M. Dubois, K. K. B. Duff,      |
 |  J. M. Escartin, A. Greco, H. Helal, Q. O. Hill, L. P. Lee,   |
 |  J.-H. Li, E. B. Linscott, G. Moynihan, D. D. O`Regan,        |
 |  O. K. Okan, M. J. S. Phipps, C. J. Pickard,                  |
 |  J. C. A. Prentice, M. I. J. Probert, L. E. Ratcliff,         |
 |  M. Robinson, A. Ruiz Serrano, J. S. Spencer, E. W. Tait,     |
 |  G. Teobaldi, D. Turban, V. Vitale, K. A. Wilkinson,          |
 |  C. Weber, J. C. Womack, N. Yeung and T. J. Zuehlsdorff       |
 |                                                               |
 |                                   Copyright (c) 2004-2020     |
 |                                                               |
 |  Please cite:                                                 |
 |  "Introducing ONETEP: Linear-scaling density functional       |
 |   simulations on parallel computers".                         |
 |   C.-K. Skylaris, P. D. Haynes, A. A. Mostofi, M. C. Payne.   |
 |   J. Chem. Phys. 122 084119 (2005).                           |
 |                                                               |
 |          in all publications arising from your use of ONETEP. |
 |                                                               |
 +---------------------------------------------------------------+
 |                                                               |
 |   ONETEP is based on developments described in the following  |
 |   publications:                                               |
 |                                                               |
 |  "Nonorthogonal generalized Wannier function pseudopotential  |
 |   plane-wave method".                                         |
 |   C.-K. Skylaris, A. A. Mostofi, P. D. Haynes, O. Dieguez,    |
 |   M. C. Payne.                                                |
 |   Phys. Rev. B 66 035119 (2002).                              |
 |                                                               |
 |  "Preconditioned iterative minimization for linear-scaling    |
 |   electronic structure calculations".                         |
 |   A. A. Mostofi, P. D. Haynes, C.-K. Skylaris, M. C. Payne.   |
 |   J. Chem. Phys. 119(17), pp.8842-8848 (2003).                |
 |                                                               |
 |  "Total-energy calculations on a real space grid with         |
 |   localized functions and a plane-wave basis".                |
 |   A. A. Mostofi, C.-K. Skylaris, P. D. Haynes, M. C. Payne.   |
 |   Comput. Phys. Commun. 147, pp.788-802 (2002).               |
 |                                                               |
 |  "Accurate kinetic energy evaluation in electronic structure  |
 |   calculations with localized functions on real space grids"  |
 |   C.-K. Skylaris, A. A. Mostofi, P. D. Haynes, C. J. Pickard, |
 |   M. C. Payne.                                                |
 |   Comput. Phys. Commun. 140, pp.315-322 (2001).               |
 |                                                               |
 |  "Accurate ionic forces and geometry optimization in linear-  |
 |   scaling density-functional theory with local orbitals"      |
 |   N. D. M. Hine, M. Robinson, P. D. Haynes, C.-K. Skylaris,   |
 |   M. C. Payne, and A. A. Mostofi.                             |
 |   Phys. Rev. B 83 195102 (2011).                              |
 |                                                               |
 +---------------------------------------------------------------+

Job started: 24-02-2020 23:21 (-0000)
 
Reading parameters from file "3.622312_GO_manual_4x64graphite.dat" ...

WARNING: "cutoff_energy" not specified, but "psinc_spacing" specified.
         Using the latter to set the KE cutoff energy to  732.32021eV,
         thus *overriding* the default.

... done

If your calculation crashes here, before "Checking processes and threads..."
is displayed, then your stack size is insufficient.
If so, use "ulimit -s unlimited" at runtime.
You can disable this check with "check_stack_size F".

Checking processes and threads...
   Determining the default number of threads...
      No default threads set at compilation time: defaulting to 1.
      OpenMP library call suggests 4 threads.
      Hybrid MPI-OpenMP compilation detected.
      Number of MPI processes > 1.
      OMP_NUM_THREADS environment variable present and
      its value matches the one obtained from the OpenMP library call.
      Using this value as default.
      Default threads: 4
      Default applies to threads_max and threads_num_fftboxes.
      Settings in the input file override this default.
   ... done

   Running with 40 MPI processes.
   There are 10 MPI processes running on the same node as the root process.
   Each MPI process is using: 
               1 threads for simulation cell FFTs.
               1 threads for parallel FFT box operations.
               4 threads for loops over batched FFT box operations.
               4 threads in other parallel regions.
... done

Basic input checks...
Resetting ngwf_cg_rotate to TRUE for EDFT calculations
... done

Reading geometry and species blocks from file "3.622312_GO_manual_4x64graphite.dat" ...
    
  PSINC grid spacing along a1 set to   0.511215680000a0 from input file.
  PSINC grid spacing along a2 set to   0.531284090000a0 from input file.
  PSINC grid spacing along a3 set to   0.507051230000a0 from input file.
  Number of PPD points along a3 set to 1.  This is 
  the default value, it may have been provided also in the input file.
... done
 Writing xyz coordinates to file "3.622312_GO_manual_4x64graphite.xyz" ... done


--------------------------------------------------------------------------------
---------------------------------- INPUT FILE ----------------------------------
--------------------------------------------------------------------------------

task : singlepoint                                                              
do_properties : true                                                            
dx_format T                                                                     
edft T                                                                          
output_detail VERBOSE                                                           
write_xyz T                                                                     
xc_functional OPTPBE                                                            
PSINC_SPACING 0.51121568 0.53128409 0.50705123                                  
paw T                                                                           
pdos_max_l = 2                                                                  
dos_smear  0.1 eV                                                               
popn_calculate T                                                                
PDOS_PSEUDOATOMIC T                                                             
PDOS_REDUCE_SWS F                                                               
PDOS_CONSTRUCT_BASIS F                                                          
PDOS_LOWDIN T                                                                   
PDOS_ORTH_ATOM_BLOCKS F                                                         
PDOS_LCAO_OPTIMIZE F                                                            
pdos_optados_output T                                                           
homo_plot 0                                                                     
lumo_plot 0                                                                     
homo_dens_plot -1                                                               
lumo_dens_plot -1                                                               
%BLOCK SPECIES                                                                  
C C 6 4 9.0                                                                     
%ENDBLOCK SPECIES                                                               
%BLOCK SPECIES_POT                                                              
C "~/pp/paw/c_pbe_abinit.paw"                                                   
%ENDBLOCK SPECIES_POT                                                           
%BLOCK SPECIES_ATOMIC_SET                                                       
C "SOLVE conf=2s2 2p2"                                                          
%ENDBLOCK SPECIES_ATOMIC_SET                                                    
%BLOCK LATTICE_CART                                                             
32.21  0.00  0.00                                                               
0.00 18.59  0.00                                                                
0.00  0.00 68.45                                                                
%ENDBLOCK LATTICE_CART                                                          
%BLOCK POSITIONS_ABS                                                            
C  0.00  0.00  3.42                                                             
C  0.00  0.00 17.11                                                             
C  0.00  0.00 30.80                                                             
C  0.00  0.00 44.49                                                             
C  0.00  0.00 58.18                                                             
C  0.00  4.65  3.42                                                             
C  0.00  4.65 17.11                                                             
C  0.00  4.65 30.80                                                             
C  0.00  4.65 44.49                                                             
C  0.00  4.65 58.18                                                             
C  4.03  2.32  3.42                                                             
C  4.03  2.32 17.11                                                             
C  4.03  2.32 30.80                                                             
C  4.03  2.32 44.49                                                             
C  4.03  2.32 58.18                                                             
C  8.05  0.00  3.42                                                             
C  8.05  0.00 17.11                                                             
C  8.05  0.00 30.80                                                             
C  8.05  0.00 44.49                                                             
C  8.05  0.00 58.18                                                             
C  0.00  9.30  3.42                                                             
C  0.00  9.30 17.11                                                             
C  0.00  9.30 30.80                                                             
C  0.00  9.30 44.49                                                             
C  0.00  9.30 58.18                                                             
C  4.03  6.97  3.42                                                             
C  4.03  6.97 17.11                                                             
C  4.03  6.97 30.80                                                             
C  4.03  6.97 44.49                                                             
C  4.03  6.97 58.18                                                             
C  8.05  4.65  3.42                                                             
C  8.05  4.65 17.11                                                             
C  8.05  4.65 30.80                                                             
C  8.05  4.65 44.49                                                             
C  8.05  4.65 58.18                                                             
C 12.08  2.32  3.42                                                             
C 12.08  2.32 17.11                                                             
C 12.08  2.32 30.80                                                             
C 12.08  2.32 44.49                                                             
C 12.08  2.32 58.18                                                             
C 16.10  0.00  3.42                                                             
C 16.10  0.00 17.11                                                             
C 16.10  0.00 30.80                                                             
C 16.10  0.00 44.49                                                             
C 16.10  0.00 58.18                                                             
C  0.00 13.95  3.42                                                             
C  0.00 13.95 17.11                                                             
C  0.00 13.95 30.80                                                             
C  0.00 13.95 44.49                                                             
C  0.00 13.95 58.18                                                             
C  4.03 11.62  3.42                                                             
C  4.03 11.62 17.11                                                             
C  4.03 11.62 30.80                                                             
C  4.03 11.62 44.49                                                             
C  4.03 11.62 58.18                                                             
C  8.05  9.30  3.42                                                             
C  8.05  9.30 17.11                                                             
C  8.05  9.30 30.80                                                             
C  8.05  9.30 44.49                                                             
C  8.05  9.30 58.18                                                             
C 12.08  6.97  3.42                                                             
C 12.08  6.97 17.11                                                             
C 12.08  6.97 30.80                                                             
C 12.08  6.97 44.49                                                             
C 12.08  6.97 58.18                                                             
C 16.10  4.65  3.42                                                             
C 16.10  4.65 17.11                                                             
C 16.10  4.65 30.80                                                             
C 16.10  4.65 44.49                                                             
C 16.10  4.65 58.18                                                             
C 20.13  2.32  3.42                                                             
C 20.13  2.32 17.11                                                             
C 20.13  2.32 30.80                                                             
C 20.13  2.32 44.49                                                             
C 20.13  2.32 58.18                                                             
C 24.16  0.00  3.42                                                             
C 24.16  0.00 17.11                                                             
C 24.16  0.00 30.80                                                             
C 24.16  0.00 44.49                                                             
C 24.16  0.00 58.18                                                             
C  4.03 16.27  3.42                                                             
C  4.03 16.27 17.11                                                             
C  4.03 16.27 30.80                                                             
C  4.03 16.27 44.49                                                             
C  4.03 16.27 58.18                                                             
C  8.05 13.95  3.42                                                             
C  8.05 13.95 17.11                                                             
C  8.05 13.95 30.80                                                             
C  8.05 13.95 44.49                                                             
C  8.05 13.95 58.18                                                             
C 12.08 11.62  3.42                                                             
C 12.08 11.62 17.11                                                             
C 12.08 11.62 30.80                                                             
C 12.08 11.62 44.49                                                             
C 12.08 11.62 58.18                                                             
C 16.10  9.30  3.42                                                             
C 16.10  9.30 17.11                                                             
C 16.10  9.30 30.80                                                             
C 16.10  9.30 44.49                                                             
C 16.10  9.30 58.18                                                             
C 20.13  6.97  3.42                                                             
C 20.13  6.97 17.11                                                             
C 20.13  6.97 30.80                                                             
C 20.13  6.97 44.49                                                             
C 20.13  6.97 58.18                                                             
C 24.16  4.65  3.42                                                             
C 24.16  4.65 17.11                                                             
C 24.16  4.65 30.80                                                             
C 24.16  4.65 44.49                                                             
C 24.16  4.65 58.18                                                             
C 28.18  2.32  3.42                                                             
C 28.18  2.32 17.11                                                             
C 28.18  2.32 30.80                                                             
C 28.18  2.32 44.49                                                             
C 28.18  2.32 58.18                                                             
C 12.08 16.27  3.42                                                             
C 12.08 16.27 17.11                                                             
C 12.08 16.27 30.80                                                             
C 12.08 16.27 44.49                                                             
C 12.08 16.27 58.18                                                             
C 16.10 13.95  3.42                                                             
C 16.10 13.95 17.11                                                             
C 16.10 13.95 30.80                                                             
C 16.10 13.95 44.49                                                             
C 16.10 13.95 58.18                                                             
C 20.13 11.62  3.42                                                             
C 20.13 11.62 17.11                                                             
C 20.13 11.62 30.80                                                             
C 20.13 11.62 44.49                                                             
C 20.13 11.62 58.18                                                             
C 24.16  9.30  3.42                                                             
C 24.16  9.30 17.11                                                             
C 24.16  9.30 30.80                                                             
C 24.16  9.30 44.49                                                             
C 24.16  9.30 58.18                                                             
C 28.18  6.97  3.42                                                             
C 28.18  6.97 17.11                                                             
C 28.18  6.97 30.80                                                             
C 28.18  6.97 44.49                                                             
C 28.18  6.97 58.18                                                             
C 20.13 16.27  3.42                                                             
C 20.13 16.27 17.11                                                             
C 20.13 16.27 30.80                                                             
C 20.13 16.27 44.49                                                             
C 20.13 16.27 58.18                                                             
C 24.16 13.95  3.42                                                             
C 24.16 13.95 17.11                                                             
C 24.16 13.95 30.80                                                             
C 24.16 13.95 44.49                                                             
C 24.16 13.95 58.18                                                             
C 28.18 11.62  3.42                                                             
C 28.18 11.62 17.11                                                             
C 28.18 11.62 30.80                                                             
C 28.18 11.62 44.49                                                             
C 28.18 11.62 58.18                                                             
C 28.18 16.27  3.42                                                             
C 28.18 16.27 17.11                                                             
C 28.18 16.27 30.80                                                             
C 28.18 16.27 44.49                                                             
C 28.18 16.27 58.18                                                             
C  0.00  0.00 10.27                                                             
C  0.00  0.00 23.96                                                             
C  0.00  0.00 37.65                                                             
C  0.00  0.00 51.34                                                             
C  0.00  0.00 65.03                                                             
C  0.00  4.65 10.27                                                             
C  0.00  4.65 23.96                                                             
C  0.00  4.65 37.65                                                             
C  0.00  4.65 51.34                                                             
C  0.00  4.65 65.03                                                             
C  4.03  2.32 10.27                                                             
C  4.03  2.32 23.96                                                             
C  4.03  2.32 37.65                                                             
C  4.03  2.32 51.34                                                             
C  4.03  2.32 65.03                                                             
C  8.05  0.00 10.27                                                             
C  8.05  0.00 23.96                                                             
C  8.05  0.00 37.65                                                             
C  8.05  0.00 51.34                                                             
C  8.05  0.00 65.03                                                             
C  0.00  9.30 10.27                                                             
C  0.00  9.30 23.96                                                             
C  0.00  9.30 37.65                                                             
C  0.00  9.30 51.34                                                             
C  0.00  9.30 65.03                                                             
C  4.03  6.97 10.27                                                             
C  4.03  6.97 23.96                                                             
C  4.03  6.97 37.65                                                             
C  4.03  6.97 51.34                                                             
C  4.03  6.97 65.03                                                             
C  8.05  4.65 10.27                                                             
C  8.05  4.65 23.96                                                             
C  8.05  4.65 37.65                                                             
C  8.05  4.65 51.34                                                             
C  8.05  4.65 65.03                                                             
C 12.08  2.32 10.27                                                             
C 12.08  2.32 23.96                                                             
C 12.08  2.32 37.65                                                             
C 12.08  2.32 51.34                                                             
C 12.08  2.32 65.03                                                             
C 16.10  0.00 10.27                                                             
C 16.10  0.00 23.96                                                             
C 16.10  0.00 37.65                                                             
C 16.10  0.00 51.34                                                             
C 16.10  0.00 65.03                                                             
C  0.00 13.95 10.27                                                             
C  0.00 13.95 23.96                                                             
C  0.00 13.95 37.65                                                             
C  0.00 13.95 51.34                                                             
C  0.00 13.95 65.03                                                             
C  4.03 11.62 10.27                                                             
C  4.03 11.62 23.96                                                             
C  4.03 11.62 37.65                                                             
C  4.03 11.62 51.34                                                             
C  4.03 11.62 65.03                                                             
C  8.05  9.30 10.27                                                             
C  8.05  9.30 23.96                                                             
C  8.05  9.30 37.65                                                             
C  8.05  9.30 51.34                                                             
C  8.05  9.30 65.03                                                             
C 12.08  6.97 10.27                                                             
C 12.08  6.97 23.96                                                             
C 12.08  6.97 37.65                                                             
C 12.08  6.97 51.34                                                             
C 12.08  6.97 65.03                                                             
C 16.10  4.65 10.27                                                             
C 16.10  4.65 23.96                                                             
C 16.10  4.65 37.65                                                             
C 16.10  4.65 51.34                                                             
C 16.10  4.65 65.03                                                             
C 20.13  2.32 10.27                                                             
C 20.13  2.32 23.96                                                             
C 20.13  2.32 37.65                                                             
C 20.13  2.32 51.34                                                             
C 20.13  2.32 65.03                                                             
C 24.16  0.00 10.27                                                             
C 24.16  0.00 23.96                                                             
C 24.16  0.00 37.65                                                             
C 24.16  0.00 51.34                                                             
C 24.16  0.00 65.03                                                             
C  4.03 16.27 10.27                                                             
C  4.03 16.27 23.96                                                             
C  4.03 16.27 37.65                                                             
C  4.03 16.27 51.34                                                             
C  4.03 16.27 65.03                                                             
C  8.05 13.95 10.27                                                             
C  8.05 13.95 23.96                                                             
C  8.05 13.95 37.65                                                             
C  8.05 13.95 51.34                                                             
C  8.05 13.95 65.03                                                             
C 12.08 11.62 10.27                                                             
C 12.08 11.62 23.96                                                             
C 12.08 11.62 37.65                                                             
C 12.08 11.62 51.34                                                             
C 12.08 11.62 65.03                                                             
C 16.10  9.30 10.27                                                             
C 16.10  9.30 23.96                                                             
C 16.10  9.30 37.65                                                             
C 16.10  9.30 51.34                                                             
C 16.10  9.30 65.03                                                             
C 20.13  6.97 10.27                                                             
C 20.13  6.97 23.96                                                             
C 20.13  6.97 37.65                                                             
C 20.13  6.97 51.34                                                             
C 20.13  6.97 65.03                                                             
C 24.16  4.65 10.27                                                             
C 24.16  4.65 23.96                                                             
C 24.16  4.65 37.65                                                             
C 24.16  4.65 51.34                                                             
C 24.16  4.65 65.03                                                             
C 28.18  2.32 10.27                                                             
C 28.18  2.32 23.96                                                             
C 28.18  2.32 37.65                                                             
C 28.18  2.32 51.34                                                             
C 28.18  2.32 65.03                                                             
C 12.08 16.27 10.27                                                             
C 12.08 16.27 23.96                                                             
C 12.08 16.27 37.65                                                             
C 12.08 16.27 51.34                                                             
C 12.08 16.27 65.03                                                             
C 16.10 13.95 10.27                                                             
C 16.10 13.95 23.96                                                             
C 16.10 13.95 37.65                                                             
C 16.10 13.95 51.34                                                             
C 16.10 13.95 65.03                                                             
C 20.13 11.62 10.27                                                             
C 20.13 11.62 23.96                                                             
C 20.13 11.62 37.65                                                             
C 20.13 11.62 51.34                                                             
C 20.13 11.62 65.03                                                             
C 24.16  9.30 10.27                                                             
C 24.16  9.30 23.96                                                             
C 24.16  9.30 37.65                                                             
C 24.16  9.30 51.34                                                             
C 24.16  9.30 65.03                                                             
C 28.18  6.97 10.27                                                             
C 28.18  6.97 23.96                                                             
C 28.18  6.97 37.65                                                             
C 28.18  6.97 51.34                                                             
C 28.18  6.97 65.03                                                             
C 20.13 16.27 10.27                                                             
C 20.13 16.27 23.96                                                             
C 20.13 16.27 37.65                                                             
C 20.13 16.27 51.34                                                             
C 20.13 16.27 65.03                                                             
C 24.16 13.95 10.27                                                             
C 24.16 13.95 23.96                                                             
C 24.16 13.95 37.65                                                             
C 24.16 13.95 51.34                                                             
C 24.16 13.95 65.03                                                             
C 28.18 11.62 10.27                                                             
C 28.18 11.62 23.96                                                             
C 28.18 11.62 37.65                                                             
C 28.18 11.62 51.34                                                             
C 28.18 11.62 65.03                                                             
C 28.18 16.27 10.27                                                             
C 28.18 16.27 23.96                                                             
C 28.18 16.27 37.65                                                             
C 28.18 16.27 51.34                                                             
C 28.18 16.27 65.03                                                             
C  1.34  2.32  3.42                                                             
C  1.34  2.32 17.11                                                             
C  1.34  2.32 30.80                                                             
C  1.34  2.32 44.49                                                             
C  1.34  2.32 58.18                                                             
C  5.37  0.00  3.42                                                             
C  5.37  0.00 17.11                                                             
C  5.37  0.00 30.80                                                             
C  5.37  0.00 44.49                                                             
C  5.37  0.00 58.18                                                             
C  1.34  6.97  3.42                                                             
C  1.34  6.97 17.11                                                             
C  1.34  6.97 30.80                                                             
C  1.34  6.97 44.49                                                             
C  1.34  6.97 58.18                                                             
C  5.37  4.65  3.42                                                             
C  5.37  4.65 17.11                                                             
C  5.37  4.65 30.80                                                             
C  5.37  4.65 44.49                                                             
C  5.37  4.65 58.18                                                             
C  9.39  2.32  3.42                                                             
C  9.39  2.32 17.11                                                             
C  9.39  2.32 30.80                                                             
C  9.39  2.32 44.49                                                             
C  9.39  2.32 58.18                                                             
C 13.42  0.00  3.42                                                             
C 13.42  0.00 17.11                                                             
C 13.42  0.00 30.80                                                             
C 13.42  0.00 44.49                                                             
C 13.42  0.00 58.18                                                             
C  1.34 11.62  3.42                                                             
C  1.34 11.62 17.11                                                             
C  1.34 11.62 30.80                                                             
C  1.34 11.62 44.49                                                             
C  1.34 11.62 58.18                                                             
C  5.37  9.30  3.42                                                             
C  5.37  9.30 17.11                                                             
C  5.37  9.30 30.80                                                             
C  5.37  9.30 44.49                                                             
C  5.37  9.30 58.18                                                             
C  9.39  6.97  3.42                                                             
C  9.39  6.97 17.11                                                             
C  9.39  6.97 30.80                                                             
C  9.39  6.97 44.49                                                             
C  9.39  6.97 58.18                                                             
C 13.42  4.65  3.42                                                             
C 13.42  4.65 17.11                                                             
C 13.42  4.65 30.80                                                             
C 13.42  4.65 44.49                                                             
C 13.42  4.65 58.18                                                             
C 17.45  2.32  3.42                                                             
C 17.45  2.32 17.11                                                             
C 17.45  2.32 30.80                                                             
C 17.45  2.32 44.49                                                             
C 17.45  2.32 58.18                                                             
C 21.47  0.00  3.42                                                             
C 21.47  0.00 17.11                                                             
C 21.47  0.00 30.80                                                             
C 21.47  0.00 44.49                                                             
C 21.47  0.00 58.18                                                             
C  1.34 16.27  3.42                                                             
C  1.34 16.27 17.11                                                             
C  1.34 16.27 30.80                                                             
C  1.34 16.27 44.49                                                             
C  1.34 16.27 58.18                                                             
C  5.37 13.95  3.42                                                             
C  5.37 13.95 17.11                                                             
C  5.37 13.95 30.80                                                             
C  5.37 13.95 44.49                                                             
C  5.37 13.95 58.18                                                             
C  9.39 11.62  3.42                                                             
C  9.39 11.62 17.11                                                             
C  9.39 11.62 30.80                                                             
C  9.39 11.62 44.49                                                             
C  9.39 11.62 58.18                                                             
C 13.42  9.30  3.42                                                             
C 13.42  9.30 17.11                                                             
C 13.42  9.30 30.80                                                             
C 13.42  9.30 44.49                                                             
C 13.42  9.30 58.18                                                             
C 17.45  6.97  3.42                                                             
C 17.45  6.97 17.11                                                             
C 17.45  6.97 30.80                                                             
C 17.45  6.97 44.49                                                             
C 17.45  6.97 58.18                                                             
C 21.47  4.65  3.42                                                             
C 21.47  4.65 17.11                                                             
C 21.47  4.65 30.80                                                             
C 21.47  4.65 44.49                                                             
C 21.47  4.65 58.18                                                             
C 25.50  2.32  3.42                                                             
C 25.50  2.32 17.11                                                             
C 25.50  2.32 30.80                                                             
C 25.50  2.32 44.49                                                             
C 25.50  2.32 58.18                                                             
C 29.52  0.00  3.42                                                             
C 29.52  0.00 17.11                                                             
C 29.52  0.00 30.80                                                             
C 29.52  0.00 44.49                                                             
C 29.52  0.00 58.18                                                             
C  9.39 16.27  3.42                                                             
C  9.39 16.27 17.11                                                             
C  9.39 16.27 30.80                                                             
C  9.39 16.27 44.49                                                             
C  9.39 16.27 58.18                                                             
C 13.42 13.95  3.42                                                             
C 13.42 13.95 17.11                                                             
C 13.42 13.95 30.80                                                             
C 13.42 13.95 44.49                                                             
C 13.42 13.95 58.18                                                             
C 17.45 11.62  3.42                                                             
C 17.45 11.62 17.11                                                             
C 17.45 11.62 30.80                                                             
C 17.45 11.62 44.49                                                             
C 17.45 11.62 58.18                                                             
C 21.47  9.30  3.42                                                             
C 21.47  9.30 17.11                                                             
C 21.47  9.30 30.80                                                             
C 21.47  9.30 44.49                                                             
C 21.47  9.30 58.18                                                             
C 25.50  6.97  3.42                                                             
C 25.50  6.97 17.11                                                             
C 25.50  6.97 30.80                                                             
C 25.50  6.97 44.49                                                             
C 25.50  6.97 58.18                                                             
C 29.52  4.65  3.42                                                             
C 29.52  4.65 17.11                                                             
C 29.52  4.65 30.80                                                             
C 29.52  4.65 44.49                                                             
C 29.52  4.65 58.18                                                             
C 17.45 16.27  3.42                                                             
C 17.45 16.27 17.11                                                             
C 17.45 16.27 30.80                                                             
C 17.45 16.27 44.49                                                             
C 17.45 16.27 58.18                                                             
C 21.47 13.95  3.42                                                             
C 21.47 13.95 17.11                                                             
C 21.47 13.95 30.80                                                             
C 21.47 13.95 44.49                                                             
C 21.47 13.95 58.18                                                             
C 25.50 11.62  3.42                                                             
C 25.50 11.62 17.11                                                             
C 25.50 11.62 30.80                                                             
C 25.50 11.62 44.49                                                             
C 25.50 11.62 58.18                                                             
C 29.52  9.30  3.42                                                             
C 29.52  9.30 17.11                                                             
C 29.52  9.30 30.80                                                             
C 29.52  9.30 44.49                                                             
C 29.52  9.30 58.18                                                             
C 25.50 16.27  3.42                                                             
C 25.50 16.27 17.11                                                             
C 25.50 16.27 30.80                                                             
C 25.50 16.27 44.49                                                             
C 25.50 16.27 58.18                                                             
C 29.52 13.95  3.42                                                             
C 29.52 13.95 17.11                                                             
C 29.52 13.95 30.80                                                             
C 29.52 13.95 44.49                                                             
C 29.52 13.95 58.18                                                             
C  2.68  0.00 10.27                                                             
C  2.68  0.00 23.96                                                             
C  2.68  0.00 37.65                                                             
C  2.68  0.00 51.34                                                             
C  2.68  0.00 65.03                                                             
C  2.68  4.65 10.27                                                             
C  2.68  4.65 23.96                                                             
C  2.68  4.65 37.65                                                             
C  2.68  4.65 51.34                                                             
C  2.68  4.65 65.03                                                             
C  6.71  2.32 10.27                                                             
C  6.71  2.32 23.96                                                             
C  6.71  2.32 37.65                                                             
C  6.71  2.32 51.34                                                             
C  6.71  2.32 65.03                                                             
C 10.74  0.00 10.27                                                             
C 10.74  0.00 23.96                                                             
C 10.74  0.00 37.65                                                             
C 10.74  0.00 51.34                                                             
C 10.74  0.00 65.03                                                             
C  2.68  9.30 10.27                                                             
C  2.68  9.30 23.96                                                             
C  2.68  9.30 37.65                                                             
C  2.68  9.30 51.34                                                             
C  2.68  9.30 65.03                                                             
C  6.71  6.97 10.27                                                             
C  6.71  6.97 23.96                                                             
C  6.71  6.97 37.65                                                             
C  6.71  6.97 51.34                                                             
C  6.71  6.97 65.03                                                             
C 10.74  4.65 10.27                                                             
C 10.74  4.65 23.96                                                             
C 10.74  4.65 37.65                                                             
C 10.74  4.65 51.34                                                             
C 10.74  4.65 65.03                                                             
C 14.76  2.32 10.27                                                             
C 14.76  2.32 23.96                                                             
C 14.76  2.32 37.65                                                             
C 14.76  2.32 51.34                                                             
C 14.76  2.32 65.03                                                             
C 18.79  0.00 10.27                                                             
C 18.79  0.00 23.96                                                             
C 18.79  0.00 37.65                                                             
C 18.79  0.00 51.34                                                             
C 18.79  0.00 65.03                                                             
C  2.68 13.95 10.27                                                             
C  2.68 13.95 23.96                                                             
C  2.68 13.95 37.65                                                             
C  2.68 13.95 51.34                                                             
C  2.68 13.95 65.03                                                             
C  6.71 11.62 10.27                                                             
C  6.71 11.62 23.96                                                             
C  6.71 11.62 37.65                                                             
C  6.71 11.62 51.34                                                             
C  6.71 11.62 65.03                                                             
C 10.74  9.30 10.27                                                             
C 10.74  9.30 23.96                                                             
C 10.74  9.30 37.65                                                             
C 10.74  9.30 51.34                                                             
C 10.74  9.30 65.03                                                             
C 14.76  6.97 10.27                                                             
C 14.76  6.97 23.96                                                             
C 14.76  6.97 37.65                                                             
C 14.76  6.97 51.34                                                             
C 14.76  6.97 65.03                                                             
C 18.79  4.65 10.27                                                             
C 18.79  4.65 23.96                                                             
C 18.79  4.65 37.65                                                             
C 18.79  4.65 51.34                                                             
C 18.79  4.65 65.03                                                             
C 22.81  2.32 10.27                                                             
C 22.81  2.32 23.96                                                             
C 22.81  2.32 37.65                                                             
C 22.81  2.32 51.34                                                             
C 22.81  2.32 65.03                                                             
C 26.84  0.00 10.27                                                             
C 26.84  0.00 23.96                                                             
C 26.84  0.00 37.65                                                             
C 26.84  0.00 51.34                                                             
C 26.84  0.00 65.03                                                             
C  6.71 16.27 10.27                                                             
C  6.71 16.27 23.96                                                             
C  6.71 16.27 37.65                                                             
C  6.71 16.27 51.34                                                             
C  6.71 16.27 65.03                                                             
C 10.74 13.95 10.27                                                             
C 10.74 13.95 23.96                                                             
C 10.74 13.95 37.65                                                             
C 10.74 13.95 51.34                                                             
C 10.74 13.95 65.03                                                             
C 14.76 11.62 10.27                                                             
C 14.76 11.62 23.96                                                             
C 14.76 11.62 37.65                                                             
C 14.76 11.62 51.34                                                             
C 14.76 11.62 65.03                                                             
C 18.79  9.30 10.27                                                             
C 18.79  9.30 23.96                                                             
C 18.79  9.30 37.65                                                             
C 18.79  9.30 51.34                                                             
C 18.79  9.30 65.03                                                             
C 22.81  6.97 10.27                                                             
C 22.81  6.97 23.96                                                             
C 22.81  6.97 37.65                                                             
C 22.81  6.97 51.34                                                             
C 22.81  6.97 65.03                                                             
C 26.84  4.65 10.27                                                             
C 26.84  4.65 23.96                                                             
C 26.84  4.65 37.65                                                             
C 26.84  4.65 51.34                                                             
C 26.84  4.65 65.03                                                             
C 30.86  2.32 10.27                                                             
C 30.86  2.32 23.96                                                             
C 30.86  2.32 37.65                                                             
C 30.86  2.32 51.34                                                             
C 30.86  2.32 65.03                                                             
C 14.76 16.27 10.27                                                             
C 14.76 16.27 23.96                                                             
C 14.76 16.27 37.65                                                             
C 14.76 16.27 51.34                                                             
C 14.76 16.27 65.03                                                             
C 18.79 13.95 10.27                                                             
C 18.79 13.95 23.96                                                             
C 18.79 13.95 37.65                                                             
C 18.79 13.95 51.34                                                             
C 18.79 13.95 65.03                                                             
C 22.81 11.62 10.27                                                             
C 22.81 11.62 23.96                                                             
C 22.81 11.62 37.65                                                             
C 22.81 11.62 51.34                                                             
C 22.81 11.62 65.03                                                             
C 26.84  9.30 10.27                                                             
C 26.84  9.30 23.96                                                             
C 26.84  9.30 37.65                                                             
C 26.84  9.30 51.34                                                             
C 26.84  9.30 65.03                                                             
C 30.86  6.97 10.27                                                             
C 30.86  6.97 23.96                                                             
C 30.86  6.97 37.65                                                             
C 30.86  6.97 51.34                                                             
C 30.86  6.97 65.03                                                             
C 22.81 16.27 10.27                                                             
C 22.81 16.27 23.96                                                             
C 22.81 16.27 37.65                                                             
C 22.81 16.27 51.34                                                             
C 22.81 16.27 65.03                                                             
C 26.84 13.95 10.27                                                             
C 26.84 13.95 23.96                                                             
C 26.84 13.95 37.65                                                             
C 26.84 13.95 51.34                                                             
C 26.84 13.95 65.03                                                             
C 30.86 11.62 10.27                                                             
C 30.86 11.62 23.96                                                             
C 30.86 11.62 37.65                                                             
C 30.86 11.62 51.34                                                             
C 30.86 11.62 65.03                                                             
C 30.86 16.27 10.27                                                             
C 30.86 16.27 23.96                                                             
C 30.86 16.27 37.65                                                             
C 30.86 16.27 51.34                                                             
C 30.86 16.27 65.03                                                             
%ENDBLOCK POSITIONS_ABS                                                         

--------------------------------------------------------------------------------
-------------------------------- END INPUT FILE --------------------------------
--------------------------------------------------------------------------------


 
<<<<<<<<<<<<<<<<<<<<<<<<<<<<<<<<< Full system >>>>>>>>>>>>>>>>>>>>>>>>>>>>>>>>>>
<<<<<<<<<<<<<<<<<<<<<<<<<<< PAW Dataset information >>>>>>>>>>>>>>>>>>>>>>>>>>>
File: ~/pp/paw/c_pbe_abinit.paw; rc = 1.25 bohr; shape type =  3; rshape = 1.25 bohr;
  Atomic number:  6;  ionic charge:  4.000000
    Partial Wave 1: l = 0
    Partial Wave 2: l = 0
    Partial Wave 3: l = 1
    Partial Wave 4: l = 1
  Core charge supplied for Nonlinear Core Corrections
<<<<<<<<<<<<<<<<<<<<<<<<<<<<<<<<<<<<<<< >>>>>>>>>>>>>>>>>>>>>>>>>>>>>>>>>>>>>>>

-------------------------- Atom counting information ---------------------------
Symbol    Natoms    Nngwfs    Nprojs
  C        640      2560      5120
.......   ......    ......    ......
Totals:    640      2560      5120
--------------------------------------------------------------------------------

=============================== PSINC grid sizes ===============================
                      Simulation cell:   63 x  35 x 135
                              FFT-box:   63 x  35 x 117
                                  PPD:    7 x   5 x   1
Grid space d1=  0.511269841270a0 (KE cutoff=  29.06054Eh = 790.77748eV)
Grid space d2=  0.531142857143a0 (KE cutoff=  26.92659Eh = 732.70972eV)
Grid space d3=  0.507037037037a0 (KE cutoff=  29.54776Eh = 804.03559eV)
================================================================================
  
WARNING in cell_grid_distribute:
Average of less than one 23-slab per node, so workload cannot be
equally balanced between nodes.

********************* Fourier parallelisation information **********************
       Coarse grid (whole simulation cell) dimensions:     63    35   135
          Real-space ('12') slabs/node (min max mean):      3     4     3
         Recip-space ('23') slabs/node (min max mean):      0     1     0
********************************************************************************

********************* Fourier parallelisation information **********************
       Double grid (whole simulation cell) dimensions:    126    70   270
          Real-space ('12') slabs/node (min max mean):      6     7     6
         Recip-space ('23') slabs/node (min max mean):      1     2     1
********************************************************************************

Atom SCF Calculation for C  : Z (AE atom) =   6 : Z (PS atom) =   4
Config String: 2s2 2p2
Orbitals (num,occ):  2     2.00 2.00
Orbitals   (num,l):  2        0    1
Real-space Grid (nr,dr,rmax): 1293    0.0069659443    9.0000000000
Spherical Bessel Basis (nsws,lmax,cutoff):   37    2  161.4736382572
Confining potential (l,width,scale):  0    3.0000000000  100.0000000000
Confining potential (l,width,scale):  1    3.0000000000  100.0000000000
  1         -5.4795203654   -1.3252209296    4.5135257941   -1.6370402169
  2         -5.4480859746   -1.4027979239    4.4305951748   -1.6109819005
  3         -5.4553164790   -1.4212834043    4.4102618304   -1.6059039466
  4         -5.4627841133   -1.4247091338    4.4065122085   -1.6052907585
  5         -5.4662306655   -1.4266814823    4.4043715292   -1.6049352647
  6         -5.4679520247   -1.4277352742    4.4032348712   -1.6047493439
  7         -5.4688359568   -1.4282868030    4.4026432892   -1.6046541449
  8         -5.4692951245   -1.4285734530    4.4023374832   -1.6046056242
  9         -5.4695349887   -1.4287220785    4.4021797781   -1.6045809101
 10         -5.4696606791   -1.4287991022    4.4020984905   -1.6045683155
 11         -5.4697266650   -1.4288390363    4.4020565747   -1.6045618912
 12         -5.4697613504   -1.4288597596    4.4020349416   -1.6045586107
 13         -5.4697795998   -1.4288705262    4.4020237638   -1.6045569335
 14         -5.4697892089   -1.4288761271    4.4020179806   -1.6045560749
 15         -5.4697942720   -1.4288790448    4.4020149844   -1.6045556348
 16         -5.4697969415   -1.4288805668    4.4020134298   -1.6045554088
 17         -5.4697983498   -1.4288813619    4.4020126220   -1.6045552927
 18         -5.4697990933   -1.4288817779    4.4020122017   -1.6045552329
 19         -5.4697994860   -1.4288819957    4.4020119826   -1.6045552021
 20         -5.4697996936   -1.4288821100    4.4020118683   -1.6045551862
 21         -5.4697998034   -1.4288821701    4.4020118085   -1.6045551780
 22         -5.4697998614   -1.4288822017    4.4020117772   -1.6045551737
Atom SCF converged after  22 iterations to a total energy of     -5.46979986

Determining parallel strategy ...
... using space-filling curve
... NGWF load balancing: max     64;  min     64;  average     64
... Projector load balancing: max    128;  min    128;  average    128
... done
Calculating Ewald energy ...
              Ewald: real-space energy =    9482.860412
        Ewald: reciprocal-space energy =       0.232615
         Ewald: (sum_charge)**2 Energy =   11028.304647
         Ewald: (sum_charge**2) Energy =     871.864035
                          Ewald Energy =   -2417.075656
Basis initialisation ...... NGWF spheres initialised
... Projector spheres initialised
... NGWF tight boxes initialised
... Projector tight boxes initialised
... Tight-boxes gathered
... NGWF basis size (local,global):     692564  27894720
... PAW projector initialisation
... done

============================= Charge Augmentation ==============================
                           Aug box size:   11 x  11 x  11
================================================================================

========================== Sparse matrix information ===========================
                        Overlap matrix filling:  40.94%
                        Density kernel filling: 100.00%
              NGWF-Proj overlap matrix filling:  12.19%
                    Aug Overlap matrix filling:  47.03%
                    Hamiltonian matrix filling:  47.03%
                  NGWF diagonal matrix filling:   0.16%
                             KS matrix filling: 100.00% 
                           KSKS matrix filling: 100.00% 
================================================================================

Sparse matrix initialisation ... done
NGWF initialisation ...... done
============ Calculation of NGWF S^-1 using Hotelling algorithm ================ 
         Iteration  |  Frobenius norm and Maximum abs value    (of I-S*S_n^-1)   
               1       0.49015959E+02     0.97540833E+00
               2       0.47760049E+02     0.95267319E+00
               3       0.45887373E+02     0.91186577E+00
               4       0.43474707E+02     0.84435061E+00
               5       0.40594865E+02     0.74451463E+00
               6       0.37255187E+02     0.67726348E+00
               7       0.33785072E+02     0.62978782E+00
               8       0.30469003E+02     0.58972045E+00
               9       0.26898953E+02     0.54520472E+00
              10       0.22365481E+02     0.47501054E+00
              11       0.16461003E+02     0.36397079E+00
              12       0.96884713E+01     0.21886061E+00
              13       0.38470039E+01     0.84618209E-01
              14       0.72782891E+00     0.14588330E-01
              15       0.31375510E-01     0.53676702E-03
              16       0.76927719E-04     0.95769183E-06
              17       0.70691140E-09     0.52776672E-11
              18       0.74668883E-13     0.44408921E-14
================================================================================
Calculating core density ...
================================= Core Density =================================
               Core den box size:   21 x  21 x  21
================================================================================
 ... done
Up spin density kernel initialisation ...... done

Writing density kernel to file "3.622312_GO_manual_4x64graphite.dkn" ... done

>>> Optimising kernel for current NGWFs:

--------------------------- Ensemble-DFT optimisation --------------------------
Running ScaLAPACK on   40 processor(s).

--------------------------------------------------------------------------------
  Iter                              Commutator    Free_energy(A=E-TS)     DeltaA
#    0                          0.000034570059   -3649.42617179870103  -3.65E+03

Step                       =       0.381966011250
Energy                     =   -3649.426144484246
Entropy (-TS)              =      -0.000027314364
Free energy (A=E-TS)       =   -3649.426171798701
Est. 0K Energy 0.5*(E+A)   =   -3649.426158141473
Residual Non-orthogonality =       0.000000000000
Residual N_electrons       =      -0.000000000092

Spin          Integrated_Ne            Fermi_level     Delta_Fermi_level
   1      2560.000000000521         0.175814993425              1.76E-01

                           Spin 1          
     Orb      H-eigenvalues     Occupancies
       1 |    -0.5480807837    1.0000000000 | 
                          ------
    1276 |     0.1410118814    0.9999831300 | 
    1277 |     0.1416405793    0.9999794253 | 
    1278 |     0.1416405793    0.9999794253 | 
    1279 |     0.1418696087    0.9999778822 | 
    1280 |     0.1424974051    0.9999730328 | 
                 - Gap at zero temperature -
    1281 |     0.2116711733    0.0000120977 | 
    1282 |     0.2116711733    0.0000120977 | 
    1283 |     0.2116891255    0.0000120293 | 
    1284 |     0.2118630746    0.0000113863 | 
    1285 |     0.2118630746    0.0000113863 | 
                          ------
    2560 |     1.0100070453    0.0000000000 | 

                       |  Abs_value |  Threshold | Converged
     Delta_Free_energy |   3.65E+03 |   1.00E-06 |        No
     Delta_Energy      |   3.65E+03 |   1.00E-04 |        No
     Delta_Entropy     |   2.73E-05 |   1.00E-04 |       Yes
     Commutator        |   3.46E-05 |   1.00E-05 |        No
     Delta_Fermi_level |   1.76E-01 |   1.00E-03 |        No

  Line search of the free energy minimum:
  Step_type        Step             Free_energy   Predicted_free_energy
.   Initial    0.000000    -3649.42617179870103
.    Trial1    0.381966    -3649.42744392618852
.    Trial2    0.618034    -3649.42764019673450
. Quadratic    0.602807    -3649.42764107684161    -3649.42764113423664

--------------------------------------------------------------------------------
  Iter                              Commutator    Free_energy(A=E-TS)     DeltaA
#    1                          0.000019649163   -3649.42764107684161  -1.47E-03

Step                       =       0.602807345285
Energy                     =   -3649.427614110417
Entropy (-TS)              =      -0.000026966124
Free energy (A=E-TS)       =   -3649.427641076842
Est. 0K Energy 0.5*(E+A)   =   -3649.427627593629
Residual Non-orthogonality =       0.000000000000
Residual N_electrons       =      -0.000000000301

Spin          Integrated_Ne            Fermi_level     Delta_Fermi_level
   1      2560.000000001713         0.175466704236             -3.48E-04

                           Spin 1          
     Orb      H-eigenvalues     Occupancies
       1 |    -0.5501303583    1.0000000000 | 
                          ------
    1276 |     0.1407029336    0.9999829191 | 
    1277 |     0.1411734392    0.9999801831 | 
    1278 |     0.1411734392    0.9999801831 | 
    1279 |     0.1415620799    0.9999775957 | 
    1280 |     0.1420315225    0.9999740158 | 
                 - Gap at zero temperature -
    1281 |     0.2113063969    0.0000121608 | 
    1282 |     0.2113063969    0.0000121608 | 
    1283 |     0.2113256664    0.0000120870 | 
    1284 |     0.2114923862    0.0000114672 | 
    1285 |     0.2114923862    0.0000114672 | 
                          ------
    2560 |     1.0091704533    0.0000000000 | 

                       |  Abs_value |  Threshold | Converged
     Delta_Free_energy |   1.47E-03 |   1.00E-06 |        No
     Delta_Energy      |   1.47E-03 |   1.00E-04 |        No
     Delta_Entropy     |   3.48E-07 |   1.00E-04 |       Yes
     Commutator        |   1.96E-05 |   1.00E-05 |        No
     Delta_Fermi_level |   3.48E-04 |   1.00E-03 |       Yes

  Line search of the free energy minimum:
  Step_type        Step             Free_energy   Predicted_free_energy
.   Initial    0.000000    -3649.42764107684161
.    Trial1    0.602807    -3649.42728526062820
.    Trial2    0.230252    -3649.42798812228011
. Quadratic    0.248983    -3649.42799006614678    -3649.42799009755436

--------------------------------------------------------------------------------
  Iter                              Commutator    Free_energy(A=E-TS)     DeltaA
#    2                          0.000010365849   -3649.42799006614678  -3.49E-04

Step                       =       0.248982761916
Energy                     =   -3649.427963171973
Entropy (-TS)              =      -0.000026894337
Free energy (A=E-TS)       =   -3649.427990066147
Est. 0K Energy 0.5*(E+A)   =   -3649.427976619060
Residual Non-orthogonality =       0.000000000000
Residual N_electrons       =       0.000000000163

Spin          Integrated_Ne            Fermi_level     Delta_Fermi_level
   1      2559.999999999070         0.175407787786             -5.89E-05

                           Spin 1          
     Orb      H-eigenvalues     Occupancies
       1 |    -0.5504703248    1.0000000000 | 
                          ------
    1276 |     0.1406049067    0.9999831287 | 
    1277 |     0.1411279648    0.9999800988 | 
    1278 |     0.1411279648    0.9999800988 | 
    1279 |     0.1414625761    0.9999778810 | 
    1280 |     0.1419845968    0.9999739172 | 
                 - Gap at zero temperature -
    1281 |     0.2112756037    0.0000120533 | 
    1282 |     0.2112756037    0.0000120533 | 
    1283 |     0.2112932843    0.0000119862 | 
    1284 |     0.2114659383    0.0000113502 | 
    1285 |     0.2114659383    0.0000113502 | 
                          ------
    2560 |     1.0090232243    0.0000000000 | 

                       |  Abs_value |  Threshold | Converged
     Delta_Free_energy |   3.49E-04 |   1.00E-06 |        No
     Delta_Energy      |   3.49E-04 |   1.00E-04 |        No
     Delta_Entropy     |   7.18E-08 |   1.00E-04 |       Yes
     Commutator        |   1.04E-05 |   1.00E-05 |        No
     Delta_Fermi_level |   5.89E-05 |   1.00E-03 |       Yes

  Line search of the free energy minimum:
  Step_type        Step             Free_energy   Predicted_free_energy
.   Initial    0.000000    -3649.42799006614678
.    Trial1    0.248983    -3649.42807830407355
.    Trial2    0.535846    -3649.42808205986967
. Quadratic    0.402692    -3649.42809334047615    -3649.42809335274569

--------------------------------------------------------------------------------
  Iter                              Commutator    Free_energy(A=E-TS)     DeltaA
#    3                          0.000007069085   -3649.42809334047615  -1.03E-04

Step                       =       0.402692077571
Energy                     =   -3649.428066534037
Entropy (-TS)              =      -0.000026806701
Free energy (A=E-TS)       =   -3649.428093340476
Est. 0K Energy 0.5*(E+A)   =   -3649.428079937257
Residual Non-orthogonality =       0.000000000000
Residual N_electrons       =       0.000000000262

Spin          Integrated_Ne            Fermi_level     Delta_Fermi_level
   1      2559.999999998507         0.175334801408             -7.30E-05

                           Spin 1          
     Orb      H-eigenvalues     Occupancies
       1 |    -0.5508744409    1.0000000000 | 
                          ------
    1276 |     0.1405061139    0.9999832656 | 
    1277 |     0.1410535121    0.9999801080 | 
    1278 |     0.1410535121    0.9999801080 | 
    1279 |     0.1413628151    0.9999780672 | 
    1280 |     0.1419091913    0.9999739371 | 
                 - Gap at zero temperature -
    1281 |     0.2112220833    0.0000119794 | 
    1282 |     0.2112220833    0.0000119794 | 
    1283 |     0.2112386996    0.0000119167 | 
    1284 |     0.2114151768    0.0000112708 | 
    1285 |     0.2114151768    0.0000112708 | 
                          ------
    2560 |     1.0088645676    0.0000000000 | 

                       |  Abs_value |  Threshold | Converged
     Delta_Free_energy |   1.03E-04 |   1.00E-06 |        No
     Delta_Energy      |   1.03E-04 |   1.00E-04 |        No
     Delta_Entropy     |   8.76E-08 |   1.00E-04 |       Yes
     Commutator        |   7.07E-06 |   1.00E-05 |       Yes
     Delta_Fermi_level |   7.30E-05 |   1.00E-03 |       Yes

  Line search of the free energy minimum:
  Step_type        Step             Free_energy   Predicted_free_energy
.   Initial    0.000000    -3649.42809334047615
.    Trial1    0.402692    -3649.42812213485922
.    Trial2    0.630843    -3649.42804653243365
. Quadratic    0.257329    -3649.42813564199241    -3649.42813562932542

--------------------------------------------------------------------------------
  Iter                              Commutator    Free_energy(A=E-TS)     DeltaA
#    4                          0.000004479112   -3649.42813564199241  -4.23E-05

Step                       =       0.257329097265
Energy                     =   -3649.428108868017
[...]
 C   160 -- C   385       -0.10      5.37000
 C   159 -- C   384       -0.10      5.37000
 C   158 -- C   383       -0.10      5.37000
 C   157 -- C   382       -0.10      5.37000
 C   156 -- C   381       -0.10      5.37000
 C   155 -- C   355       -0.10      5.37000
 C   154 -- C   354       -0.10      5.37000
 C   153 -- C   353       -0.10      5.37000
 C   152 -- C   352       -0.10      5.37000
 C   151 -- C   351       -0.10      5.37000
 C   140 -- C   335       -0.10      5.37000
 C   139 -- C   334       -0.10      5.37000
 C   138 -- C   333       -0.10      5.37000
 C   137 -- C   332       -0.10      5.37000
 C   136 -- C   331       -0.10      5.37000
 C   115 -- C   325       -0.10      5.37000
 C   114 -- C   324       -0.10      5.37000
 C   113 -- C   323       -0.10      5.37000
 C   112 -- C   322       -0.10      5.37000
 C   111 -- C   321       -0.10      5.37000
 C   219 -- C   569       -0.10      5.37202
 C   218 -- C   568       -0.10      5.37202
 C   217 -- C   567       -0.10      5.37202
 C   216 -- C   566       -0.10      5.37202
 C   250 -- C   540       -0.10      5.37202
 C   249 -- C   539       -0.10      5.37202
 C   248 -- C   538       -0.10      5.37202
 C   247 -- C   537       -0.10      5.37202
 C   246 -- C   536       -0.10      5.37202
 C   220 -- C   570       -0.10      5.37202
 C   285 -- C   580       -0.10      5.37202
 C   284 -- C   579       -0.10      5.37202
 C   283 -- C   578       -0.10      5.37202
 C   282 -- C   577       -0.10      5.37202
 C   281 -- C   576       -0.10      5.37202
 C   260 -- C   605       -0.10      5.37202
 C   259 -- C   604       -0.10      5.37202
 C   258 -- C   603       -0.10      5.37202
 C   257 -- C   602       -0.10      5.37202
 C   256 -- C   601       -0.10      5.37202
 C   220 -- C   515       -0.10      5.37202
 C   219 -- C   514       -0.10      5.37202
 C   218 -- C   513       -0.10      5.37202
 C   217 -- C   512       -0.10      5.37202
 C   216 -- C   511       -0.10      5.37202
 C   195 -- C   540       -0.10      5.37202
 C   195 -- C   500       -0.10      5.37202
 C   194 -- C   539       -0.10      5.37202
 C   194 -- C   499       -0.10      5.37202
 C   193 -- C   538       -0.10      5.37202
 C   193 -- C   498       -0.10      5.37202
 C   192 -- C   537       -0.10      5.37202
 C   192 -- C   497       -0.10      5.37202
 C   191 -- C   536       -0.10      5.37202
 C   191 -- C   496       -0.10      5.37202
 C   180 -- C   515       -0.10      5.37202
 C   179 -- C   514       -0.10      5.37202
 C   178 -- C   513       -0.10      5.37202
 C   177 -- C   512       -0.10      5.37202
 C   176 -- C   511       -0.10      5.37202
 C    11 -- C   331       -0.10      5.37202
 C   205 -- C   550       -0.10      5.37202
 C   204 -- C   549       -0.10      5.37202
 C   203 -- C   548       -0.10      5.37202
 C   202 -- C   547       -0.10      5.37202
 C   201 -- C   546       -0.10      5.37202
 C    95 -- C   425       -0.10      5.37202
 C    95 -- C   365       -0.10      5.37202
 C    94 -- C   424       -0.10      5.37202
 C    94 -- C   364       -0.10      5.37202
 C    93 -- C   423       -0.10      5.37202
 C    93 -- C   363       -0.10      5.37202
 C    92 -- C   422       -0.10      5.37202
 C    92 -- C   362       -0.10      5.37202
 C    91 -- C   421       -0.10      5.37202
 C    91 -- C   361       -0.10      5.37202
 C    40 -- C   365       -0.10      5.37202
 C    39 -- C   364       -0.10      5.37202
 C    38 -- C   363       -0.10      5.37202
 C    37 -- C   362       -0.10      5.37202
 C    36 -- C   361       -0.10      5.37202
 C    15 -- C   335       -0.10      5.37202
 C    65 -- C   395       -0.10      5.37202
 C    65 -- C   345       -0.10      5.37202
 C    64 -- C   394       -0.10      5.37202
 C    64 -- C   344       -0.10      5.37202
 C    63 -- C   393       -0.10      5.37202
 C    30 -- C   355       -0.10      5.37202
 C    63 -- C   343       -0.10      5.37202
 C    62 -- C   392       -0.10      5.37202
 C    30 -- C   325       -0.10      5.37202
 C    14 -- C   334       -0.10      5.37202
 C    62 -- C   342       -0.10      5.37202
 C    61 -- C   391       -0.10      5.37202
 C    29 -- C   354       -0.10      5.37202
 C    61 -- C   341       -0.10      5.37202
 C    29 -- C   324       -0.10      5.37202
 C   260 -- C   550       -0.10      5.37202
 C   259 -- C   549       -0.10      5.37202
 C    28 -- C   353       -0.10      5.37202
 C   258 -- C   548       -0.10      5.37202
 C   257 -- C   547       -0.10      5.37202
 C   256 -- C   546       -0.10      5.37202
 C    28 -- C   323       -0.10      5.37202
 C    27 -- C   352       -0.10      5.37202
 C    13 -- C   333       -0.10      5.37202
 C    27 -- C   322       -0.10      5.37202
 C   120 -- C   395       -0.10      5.37202
 C    26 -- C   351       -0.10      5.37202
 C   119 -- C   394       -0.10      5.37202
 C   118 -- C   393       -0.10      5.37202
 C    55 -- C   335       -0.10      5.37202
 C   117 -- C   392       -0.10      5.37202
 C    26 -- C   321       -0.10      5.37202
 C   116 -- C   391       -0.10      5.37202
 C    54 -- C   334       -0.10      5.37202
 C    12 -- C   332       -0.10      5.37202
 C    53 -- C   333       -0.10      5.37202
 C   230 -- C   580       -0.10      5.37202
 C   230 -- C   525       -0.10      5.37202
 C   229 -- C   579       -0.10      5.37202
 C   229 -- C   524       -0.10      5.37202
 C   228 -- C   578       -0.10      5.37202
 C    52 -- C   332       -0.10      5.37202
 C   228 -- C   523       -0.10      5.37202
 C   227 -- C   577       -0.10      5.37202
 C   227 -- C   522       -0.10      5.37202
 C   226 -- C   576       -0.10      5.37202
 C   226 -- C   521       -0.10      5.37202
 C    51 -- C   331       -0.10      5.37202
 C    23 -- C   478       -0.10      5.37202
 C    49 -- C   469       -0.10      5.37202
 C    48 -- C   468       -0.10      5.37202
 C    47 -- C   467       -0.10      5.37202
 C    22 -- C   477       -0.10      5.37202
 C    46 -- C   466       -0.10      5.37202
 C    21 -- C   476       -0.10      5.37202
 C    85 -- C   355       -0.10      5.37202
 C    84 -- C   354       -0.10      5.37202
 C    83 -- C   353       -0.10      5.37202
 C    82 -- C   352       -0.10      5.37202
 C    81 -- C   351       -0.10      5.37202
 C    55 -- C   385       -0.10      5.37202
 C    54 -- C   384       -0.10      5.37202
 C    25 -- C   480       -0.10      5.37202
 C    53 -- C   383       -0.10      5.37202
 C    52 -- C   382       -0.10      5.37202
 C    51 -- C   381       -0.10      5.37202
 C    24 -- C   479       -0.10      5.37202
 C    50 -- C   470       -0.10      5.37202
 C    24 -- C   449       -0.10      5.37202
 C     6 -- C   416       -0.10      5.37202
 C    23 -- C   448       -0.10      5.37202
 C    22 -- C   447       -0.10      5.37202
 C    10 -- C   470       -0.10      5.37202
 C     5 -- C   450       -0.10      5.37202
 C    21 -- C   446       -0.10      5.37202
 C    10 -- C   420       -0.10      5.37202
 C     9 -- C   469       -0.10      5.37202
 C     9 -- C   419       -0.10      5.37202
 C     8 -- C   468       -0.10      5.37202
 C     4 -- C   449       -0.10      5.37202
 C   150 -- C   440       -0.10      5.37202
 C   149 -- C   439       -0.10      5.37202
 C   148 -- C   438       -0.10      5.37202
 C   147 -- C   437       -0.10      5.37202
 C     8 -- C   418       -0.10      5.37202
 C   146 -- C   436       -0.10      5.37202
 C     2 -- C   447       -0.10      5.37202
 C   135 -- C   460       -0.10      5.37202
 C     7 -- C   467       -0.10      5.37202
 C   134 -- C   459       -0.10      5.37202
 C   133 -- C   458       -0.10      5.37202
 C   132 -- C   457       -0.10      5.37202
 C   131 -- C   456       -0.10      5.37202
 C     7 -- C   417       -0.10      5.37202
 C     1 -- C   446       -0.10      5.37202
 C     6 -- C   466       -0.10      5.37202
 C    25 -- C   450       -0.10      5.37202
 C     3 -- C   448       -0.10      5.37202
 C   106 -- C   436       -0.10      5.37202
 C   106 -- C   376       -0.10      5.37202
 C    80 -- C   410       -0.10      5.37202
 C    79 -- C   409       -0.10      5.37202
 C    78 -- C   408       -0.10      5.37202
 C    77 -- C   407       -0.10      5.37202
 C    76 -- C   406       -0.10      5.37202
 C   135 -- C   410       -0.10      5.37202
 C   134 -- C   409       -0.10      5.37202
 C   133 -- C   408       -0.10      5.37202
 C   132 -- C   407       -0.10      5.37202
 C   131 -- C   406       -0.10      5.37202
 C   110 -- C   440       -0.10      5.37202
 C   110 -- C   380       -0.10      5.37202
 C   109 -- C   439       -0.10      5.37202
 C   109 -- C   379       -0.10      5.37202
 C   108 -- C   438       -0.10      5.37202
 C   108 -- C   378       -0.10      5.37202
 C   107 -- C   437       -0.10      5.37202
 C   107 -- C   377       -0.10      5.37202
 C   215 -- C   635       -0.10      5.38000
 C   214 -- C   634       -0.10      5.38000
 C   213 -- C   633       -0.10      5.38000
 C   212 -- C   632       -0.10      5.38000
 C   211 -- C   631       -0.10      5.38000
 C   190 -- C   620       -0.10      5.38000
 C   189 -- C   619       -0.10      5.38000
 C   188 -- C   618       -0.10      5.38000
 C   187 -- C   617       -0.10      5.38000
 C   186 -- C   616       -0.10      5.38000
 C   175 -- C   595       -0.10      5.38000
 C   174 -- C   594       -0.10      5.38000
 C   173 -- C   593       -0.10      5.38000
 C   172 -- C   592       -0.10      5.38000
 C   171 -- C   591       -0.10      5.38000
 C   245 -- C   640       -0.10      5.38000
 C   244 -- C   639       -0.10      5.38000
 C   243 -- C   638       -0.10      5.38000
 C   242 -- C   637       -0.10      5.38000
 C   241 -- C   636       -0.10      5.38000
==================================================


=================== Orbital energy and occupancy information ===================

      Total number of orbitals:    2560
        Occupancy sum (kernel):    1280.000000001
   Occupancy sum (eigenvalues):    1280.000000001
                 HOMO-LUMO gap:       0.000250362 Eh
                 Mid-gap level:       0.261693769 Eh

                        Orbital | Energy (Eh) | Occupancy
                            1    -0.493469936   1.0000000
                        .......   ...........   .........
                         1273     0.191652580   0.9999873
                         1274     0.191652580   0.9999873
                         1275     0.194437227   0.9999694
                         1276     0.194437227   0.9999694
                         1277     0.194904901   0.9999645
                         1278     0.194904901   0.9999645
                         1279     0.195442074   0.9999580
                         1280     0.195905556   0.9999514
                         1281     0.261568588   0.0000202
                         1282     0.261568588   0.0000202
                        ....... -- gap at 0K -- .........
                         1283     0.261818950   0.0000187
                         1284     0.261818950   0.0000187
                         1285     0.261953785   0.0000179
                         1286     0.261953785   0.0000179
                         1287     0.262215266   0.0000165
                         1288     0.262215266   0.0000165
                         1289     0.262256614   0.0000163
                         1290     0.262431354   0.0000154
                         1291     0.262431354   0.0000154
                         1292     0.262521631   0.0000150
                        .......   ...........   .........
                         2560     1.121868824   0.0000000

================================================================================

===================== Writing canonical molecular orbitals =====================
| Orbital  Energy (eV)  Norm     |
| HOMO      7.11764344  1.000000 | Writing "3.622312_GO_manual_4x64graphite_HOMO.cube" ... done
Writing "3.622312_GO_manual_4x64graphite_HOMO.dx" ... done
| LUMO      7.12445614  1.000000 | Writing "3.622312_GO_manual_4x64graphite_LUMO.cube" ... done
Writing "3.622312_GO_manual_4x64graphite_LUMO.dx" ... done
================================================================================
 
===================== Density of States (DOS) calculation ======================
Writing "3.622312_GO_manual_4x64graphite_DOS.txt" ...  done
================================================================================
 
Writing bands to file "3.622312_GO_manual_4x64graphite.val_bands" ... done
 
================ Projected Density of States (pDOS) calculation ================
 
Constructing AM resolved functions  ...... done
Writing NGWF plot files in formats: CUBE DX ...  done
 
Performing overlap integrals ...  done
 
Computing pDOS weights ...  done
 
All bands spilling parameter =   3.29 %
Occupancy-weighted spilling parameter =   0.92 %
 
 => Outputting data for OptaDOS <=
 
Writing pDOS weights to file "3.622312_GO_manual_4x64graphite.val_pdos_bin" ... done
 
Writing band gradients to file "3.622312_GO_manual_4x64graphite.val_dome_bin" ... done
 
Writing Castep output cell file to "3.622312_GO_manual_4x64graphite-out.cell" ... done
 
 => Computing Gaussian smeared pDOS <= 
Writing "3.622312_GO_manual_4x64graphite_PDOS.txt" ...  done
 
 => Computing Occupancy-weighted Gaussian smeared pDOS <= 
Writing "3.622312_GO_manual_4x64graphite_occ_PDOS.txt" ...  done
  => Band centres: 
 S band centre of group 1:  -15.596976 eV
 P band centre of group 1:   -8.477470 eV
  Band centres done. <=
  => Integrated number of electrons in each AM band: 
 S num electrons of group 1:  575.482251
 P num electrons of group 1: 1960.964320
  Integrated number of electrons done. <=
================================================================================

------------------------------ TIMING INFORMATION ------------------------------
AVERAGE TIME:    3272.348s on     40 node(s)                                    
TOTAL TIME:      3272.349s on     40 node(s)                                    
================= AVERAGE TIMINGS FROM ALL NODES (CUMULATIVE) ==================
|| TAG                                    #calls    cpu time   %total  Gflops ||
|| work_imbalance                       :     1        0.00s   0.000%  ------ ||
|| paw_tcore_hartree_on_grid            :     1        0.00s   0.000%  ------ ||
|| paw_tcore_density                    :     1        0.01s   0.000%  ------ ||
|| paw_sphere_density_on_grid           :     1        0.01s   0.000%  ------ ||
|| sparse_set_to_garbage                :   147        0.02s   0.001%  ------ ||
|| paw_dij_hartree                      :   293        0.04s   0.001%  ------ ||
|| pseudo_make_structure_factor         :     1        0.06s   0.002%  ------ ||
|| basis_extract_function_from_box      :  1664        0.07s   0.002%  ------ ||
|| paw_species_calc_proj_prec_mat       :     1        0.12s   0.004%  ------ ||
|| paw_dataset_init                     :     1        0.15s   0.005%  ------ ||
|| density_init_guess_real              :     1        0.17s   0.005%  ------ ||
|| ngwfs_initialise_from_radial         :     2        0.67s   0.020%  ------ ||
|| restart_kernel_write                 :    14        0.76s   0.023%  ------ ||
|| sparse_init                          :     1        0.91s   0.028%  ------ ||
|| hartree_on_grid                      :   220        1.08s   0.033%  ------ ||
|| dense_normal_eigensolve              :     1        1.35s   0.041%  ------ ||
|| projectors_init_fftbox_recip         :   131        2.52s   0.077%  ------ ||
|| ewald_calculate_energy               :     1        2.93s   0.089%  ------ ||
|| fourier_apply_box_pair               :  2464        4.08s   0.125% 560.836 ||
|| basis_copy_function_to_box           : 20992        4.53s   0.139%  ------ ||
|| augmentation_screen_dij              :   225        5.00s   0.153%  ------ ||
|| sw_init                              :     1        6.73s   0.206%  ------ ||
|| sparse_embed_hotelling_invert_embed  :    25        7.18s   0.219%  ------ ||
|| ngwf_gradient_coeffs                 :    13        9.33s   0.285%  ------ ||
|| sparse_trace                         :  2648       12.28s   0.375%  ------ ||
|| fourier_apply_cell_backward          :  6791       13.15s   0.402%  65.843 ||
|| fourier_apply_cell_forward           :  6352       13.61s   0.416%  59.477 ||
|| cell_grid_extract_box_real           :  8860       15.05s   0.460%  ------ ||
|| cell_grid_deposit_box_real           : 28336       17.72s   0.541%  ------ ||
|| paw_dij_xc                           :   293       20.09s   0.614%  ------ ||
|| aug_nonlocal_mat                     :   280       29.14s   0.891%  ------ ||
|| density_fftbox_deposit_to_cell       : 14080       35.27s   1.078%  ------ ||
|| augmentation_density_on_grid         :   220       39.49s   1.207%  ------ ||
|| hamiltonian_energy_components        :     3       46.14s   1.410%  ------ ||
|| function_ops_brappd_ketppd           :    52       49.76s   1.521%  ------ ||
|| eigenstates_pdos                     :     1       53.94s   1.648%  ------ ||
|| nlxc_vdw_energy                      :   438       56.62s   1.730%  ------ ||
|| projectors_func_ovlp_box             :    26       58.07s   1.775%  ------ ||
|| eigenstates_calculate                :     1       58.22s   1.779%  ------ ||
|| xc_energy_potential                  :   219       65.09s   1.989%  ------ ||
|| integrals_kinetic                    :    25       80.97s   2.475%  ------ ||
|| dense_eigensolve                     :   191       95.37s   2.914%  ------ ||
|| properties_calculate                 :     1      105.68s   3.229%  ------ ||
|| potential_apply_to_ngwf_batch        :   276      106.64s   3.259%  ------ ||
|| sparse_product                       :  2707      108.72s   3.322%  ------ ||
|| restart_ngwfs_tightbox_output        :    12      174.75s   5.340%  ------ ||
|| basis_dot_function_with_box          : 6.506M     176.92s   5.407%  ------ ||
|| fourier_apply_box                    : 66304      205.44s   6.278% 978.350 ||
|| edft_diag_ngwf_ham                   :   190      212.15s   6.483%  ------ ||
|| integrals_locpot_mat_els_batch       :   276      229.25s   7.006%  ------ ||
|| projectors_gradient_batch            :    52      234.41s   7.163%  ------ ||
|| density_fftbox_interpolate_multiply  : 14080      272.29s   8.321%  ------ ||
|| projectors_grad_precond_batch        :    52      322.49s   9.855%  ------ ||
|| integrals_locpot_dbl_grid            :    69      337.19s  10.304%  ------ ||
|| density_batch_interp_deposit         :   880      340.16s  10.395%  ------ ||
|| edft_apply_smearing_operator         :   190      411.58s  12.577%  ------ ||
|| basis_add_function_to_box            : 18.24M     480.45s  14.682%  ------ ||
|| ngwf_gradient_build_batch            :    52      596.14s  18.218%  ------ ||
|| density_batch_row_sums               :   880      657.31s  20.087%  ------ ||
|| ngwf_gradient_batch                  :    52      786.45s  24.033%  ------ ||
|| ngwf_gradient_lnv                    :    13      816.24s  24.944%  ------ ||
|| density_on_dbl_grid                  :   220     1010.49s  30.880%  ------ ||
|| hamiltonian_lhxc_calculate           :   215     1093.17s  33.406%  ------ ||
|| edft_calculate                       :    13     1823.36s  55.720%  ------ ||
|| ngwf_cg_optimise                     :     1     3141.52s  96.002%  ------ ||
|| total_time                           :     1     3272.35s 100.000%  ------ ||
================================================================================
Overhead of generating timer report: 
- 0 ms averaging over threads,
- 5 ms ensuring consistency across MPI ranks,
- 0 ms printing in order.

Job completed: 25-02-2020 00:15 (-0000)

