 +---------------------------------------------------------------+
 |                                                               |
 |        ####### #     # ####### ####### ####### ######         |
 |        #     # ##    # #          #    #       #     #        |
 |        #     # # #   # #          #    #       #     #        |
 |        #     # #  #  # #####      #    #####   ######         |
 |        #     # #   # # #          #    #       #              |
 |        #     # #    ## #          #    #       #              |
 |        ####### #     # #######    #    ####### #              |
 |                                                               |
 |        Linear-Scaling Ab Initio Total Energy Program          |
 |                                                               |
 |          Release for academic collaborators of ODG            |
 |                                             Version 5.3.2.12  |
 |                                                               |
 +---------------------------------------------------------------+
 |                                                               |
 |  Authors:                                                     |
 |  Jacek Dziedzic, Peter D. Haynes, Nicholas D. M. Hine,        |
 |  Arash. A. Mostofi, Mike C. Payne and Chris-Kriton Skylaris   |
 |                                                               |
 |  Contributors:                                                |
 |  J. Aarons, L. Andrinopoulos, P. W. Avraam, R. A. Bell,       |
 |  A. Bhandari, G. A. Bramley, R. J. Charlton, S. J. Clark,     |
 |  R. J. Clements, G. C. Constantinescu, F. Corsetti,           |
 |  N. Corsini, O. Dieguez, S. M. M. Dubois, K. K. B. Duff,      |
 |  J. M. Escartin, A. Greco, H. Helal, Q. O. Hill, L. P. Lee,   |
 |  J.-H. Li, E. B. Linscott, G. Moynihan, D. D. O`Regan,        |
 |  O. K. Okan, M. J. S. Phipps, C. J. Pickard,                  |
 |  J. C. A. Prentice, M. I. J. Probert, L. E. Ratcliff,         |
 |  M. Robinson, A. Ruiz Serrano, J. S. Spencer, E. W. Tait,     |
 |  G. Teobaldi, D. Turban, V. Vitale, K. A. Wilkinson,          |
 |  C. Weber, J. C. Womack, N. Yeung and T. J. Zuehlsdorff       |
 |                                                               |
 |                                   Copyright (c) 2004-2020     |
 |                                                               |
 |  Please cite:                                                 |
 |  "Introducing ONETEP: Linear-scaling density functional       |
 |   simulations on parallel computers".                         |
 |   C.-K. Skylaris, P. D. Haynes, A. A. Mostofi, M. C. Payne.   |
 |   J. Chem. Phys. 122 084119 (2005).                           |
 |                                                               |
 |          in all publications arising from your use of ONETEP. |
 |                                                               |
 +---------------------------------------------------------------+
 |                                                               |
 |   ONETEP is based on developments described in the following  |
 |   publications:                                               |
 |                                                               |
 |  "Nonorthogonal generalized Wannier function pseudopotential  |
 |   plane-wave method".                                         |
 |   C.-K. Skylaris, A. A. Mostofi, P. D. Haynes, O. Dieguez,    |
 |   M. C. Payne.                                                |
 |   Phys. Rev. B 66 035119 (2002).                              |
 |                                                               |
 |  "Preconditioned iterative minimization for linear-scaling    |
 |   electronic structure calculations".                         |
 |   A. A. Mostofi, P. D. Haynes, C.-K. Skylaris, M. C. Payne.   |
 |   J. Chem. Phys. 119(17), pp.8842-8848 (2003).                |
 |                                                               |
 |  "Total-energy calculations on a real space grid with         |
 |   localized functions and a plane-wave basis".                |
 |   A. A. Mostofi, C.-K. Skylaris, P. D. Haynes, M. C. Payne.   |
 |   Comput. Phys. Commun. 147, pp.788-802 (2002).               |
 |                                                               |
 |  "Accurate kinetic energy evaluation in electronic structure  |
 |   calculations with localized functions on real space grids"  |
 |   C.-K. Skylaris, A. A. Mostofi, P. D. Haynes, C. J. Pickard, |
 |   M. C. Payne.                                                |
 |   Comput. Phys. Commun. 140, pp.315-322 (2001).               |
 |                                                               |
 |  "Accurate ionic forces and geometry optimization in linear-  |
 |   scaling density-functional theory with local orbitals"      |
 |   N. D. M. Hine, M. Robinson, P. D. Haynes, C.-K. Skylaris,   |
 |   M. C. Payne, and A. A. Mostofi.                             |
 |   Phys. Rev. B 83 195102 (2011).                              |
 |                                                               |
 +---------------------------------------------------------------+

Job started: 29-02-2020 09:46 (-0000)
 
Reading parameters from file "3.756468_GO_manual_4x64graphite.dat" ...

WARNING: "cutoff_energy" not specified, but "psinc_spacing" specified.
         Using the latter to set the KE cutoff energy to  732.32021eV,
         thus *overriding* the default.

... done

If your calculation crashes here, before "Checking processes and threads..."
is displayed, then your stack size is insufficient.
If so, use "ulimit -s unlimited" at runtime.
You can disable this check with "check_stack_size F".

Checking processes and threads...
   Determining the default number of threads...
      No default threads set at compilation time: defaulting to 1.
      OpenMP library call suggests 4 threads.
      Hybrid MPI-OpenMP compilation detected.
      Number of MPI processes > 1.
      OMP_NUM_THREADS environment variable present and
      its value matches the one obtained from the OpenMP library call.
      Using this value as default.
      Default threads: 4
      Default applies to threads_max and threads_num_fftboxes.
      Settings in the input file override this default.
   ... done

   Running with 40 MPI processes.
   There are 10 MPI processes running on the same node as the root process.
   Each MPI process is using: 
               1 threads for simulation cell FFTs.
               1 threads for parallel FFT box operations.
               4 threads for loops over batched FFT box operations.
               4 threads in other parallel regions.
... done

Basic input checks...
Resetting ngwf_cg_rotate to TRUE for EDFT calculations
... done

Reading geometry and species blocks from file "3.756468_GO_manual_4x64graphite.dat" ...
    
  PSINC grid spacing along a1 set to   0.511215680000a0 from input file.
  PSINC grid spacing along a2 set to   0.531284090000a0 from input file.
  PSINC grid spacing along a3 set to   0.507050730000a0 from input file.
  Number of PPD points along a3 set to 1.  This is 
  the default value, it may have been provided also in the input file.
... done
 Writing xyz coordinates to file "3.756468_GO_manual_4x64graphite.xyz" ... done


--------------------------------------------------------------------------------
---------------------------------- INPUT FILE ----------------------------------
--------------------------------------------------------------------------------

task : singlepoint                                                              
do_properties : true                                                            
dx_format T                                                                     
edft T                                                                          
output_detail VERBOSE                                                           
write_xyz T                                                                     
xc_functional OPTPBE                                                            
PSINC_SPACING 0.51121568 0.53128409 0.50705073                                  
paw T                                                                           
pdos_max_l = 2                                                                  
dos_smear  0.1 eV                                                               
popn_calculate T                                                                
PDOS_PSEUDOATOMIC T                                                             
PDOS_REDUCE_SWS F                                                               
PDOS_CONSTRUCT_BASIS F                                                          
PDOS_LOWDIN T                                                                   
PDOS_ORTH_ATOM_BLOCKS F                                                         
PDOS_LCAO_OPTIMIZE F                                                            
pdos_optados_output T                                                           
homo_plot 0                                                                     
lumo_plot 0                                                                     
homo_dens_plot -1                                                               
lumo_dens_plot -1                                                               
%BLOCK SPECIES                                                                  
C C 6 4 9.0                                                                     
%ENDBLOCK SPECIES                                                               
%BLOCK SPECIES_POT                                                              
C "~/pp/paw/c_pbe_abinit.paw"                                                   
%ENDBLOCK SPECIES_POT                                                           
%BLOCK SPECIES_ATOMIC_SET                                                       
C "SOLVE conf=2s2 2p2"                                                          
%ENDBLOCK SPECIES_ATOMIC_SET                                                    
%BLOCK LATTICE_CART                                                             
32.21  0.00  0.00                                                               
0.00 18.59  0.00                                                                
0.00  0.00 70.99                                                                
%ENDBLOCK LATTICE_CART                                                          
%BLOCK POSITIONS_ABS                                                            
C  0.00  0.00  3.55                                                             
C  0.00  0.00 17.75                                                             
C  0.00  0.00 31.94                                                             
C  0.00  0.00 46.14                                                             
C  0.00  0.00 60.34                                                             
C  0.00  4.65  3.55                                                             
C  0.00  4.65 17.75                                                             
C  0.00  4.65 31.94                                                             
C  0.00  4.65 46.14                                                             
C  0.00  4.65 60.34                                                             
C  4.03  2.32  3.55                                                             
C  4.03  2.32 17.75                                                             
C  4.03  2.32 31.94                                                             
C  4.03  2.32 46.14                                                             
C  4.03  2.32 60.34                                                             
C  8.05  0.00  3.55                                                             
C  8.05  0.00 17.75                                                             
C  8.05  0.00 31.94                                                             
C  8.05  0.00 46.14                                                             
C  8.05  0.00 60.34                                                             
C  0.00  9.30  3.55                                                             
C  0.00  9.30 17.75                                                             
C  0.00  9.30 31.94                                                             
C  0.00  9.30 46.14                                                             
C  0.00  9.30 60.34                                                             
C  4.03  6.97  3.55                                                             
C  4.03  6.97 17.75                                                             
C  4.03  6.97 31.94                                                             
C  4.03  6.97 46.14                                                             
C  4.03  6.97 60.34                                                             
C  8.05  4.65  3.55                                                             
C  8.05  4.65 17.75                                                             
C  8.05  4.65 31.94                                                             
C  8.05  4.65 46.14                                                             
C  8.05  4.65 60.34                                                             
C 12.08  2.32  3.55                                                             
C 12.08  2.32 17.75                                                             
C 12.08  2.32 31.94                                                             
C 12.08  2.32 46.14                                                             
C 12.08  2.32 60.34                                                             
C 16.10  0.00  3.55                                                             
C 16.10  0.00 17.75                                                             
C 16.10  0.00 31.94                                                             
C 16.10  0.00 46.14                                                             
C 16.10  0.00 60.34                                                             
C  0.00 13.95  3.55                                                             
C  0.00 13.95 17.75                                                             
C  0.00 13.95 31.94                                                             
C  0.00 13.95 46.14                                                             
C  0.00 13.95 60.34                                                             
C  4.03 11.62  3.55                                                             
C  4.03 11.62 17.75                                                             
C  4.03 11.62 31.94                                                             
C  4.03 11.62 46.14                                                             
C  4.03 11.62 60.34                                                             
C  8.05  9.30  3.55                                                             
C  8.05  9.30 17.75                                                             
C  8.05  9.30 31.94                                                             
C  8.05  9.30 46.14                                                             
C  8.05  9.30 60.34                                                             
C 12.08  6.97  3.55                                                             
C 12.08  6.97 17.75                                                             
C 12.08  6.97 31.94                                                             
C 12.08  6.97 46.14                                                             
C 12.08  6.97 60.34                                                             
C 16.10  4.65  3.55                                                             
C 16.10  4.65 17.75                                                             
C 16.10  4.65 31.94                                                             
C 16.10  4.65 46.14                                                             
C 16.10  4.65 60.34                                                             
C 20.13  2.32  3.55                                                             
C 20.13  2.32 17.75                                                             
C 20.13  2.32 31.94                                                             
C 20.13  2.32 46.14                                                             
C 20.13  2.32 60.34                                                             
C 24.16  0.00  3.55                                                             
C 24.16  0.00 17.75                                                             
C 24.16  0.00 31.94                                                             
C 24.16  0.00 46.14                                                             
C 24.16  0.00 60.34                                                             
C  4.03 16.27  3.55                                                             
C  4.03 16.27 17.75                                                             
C  4.03 16.27 31.94                                                             
C  4.03 16.27 46.14                                                             
C  4.03 16.27 60.34                                                             
C  8.05 13.95  3.55                                                             
C  8.05 13.95 17.75                                                             
C  8.05 13.95 31.94                                                             
C  8.05 13.95 46.14                                                             
C  8.05 13.95 60.34                                                             
C 12.08 11.62  3.55                                                             
C 12.08 11.62 17.75                                                             
C 12.08 11.62 31.94                                                             
C 12.08 11.62 46.14                                                             
C 12.08 11.62 60.34                                                             
C 16.10  9.30  3.55                                                             
C 16.10  9.30 17.75                                                             
C 16.10  9.30 31.94                                                             
C 16.10  9.30 46.14                                                             
C 16.10  9.30 60.34                                                             
C 20.13  6.97  3.55                                                             
C 20.13  6.97 17.75                                                             
C 20.13  6.97 31.94                                                             
C 20.13  6.97 46.14                                                             
C 20.13  6.97 60.34                                                             
C 24.16  4.65  3.55                                                             
C 24.16  4.65 17.75                                                             
C 24.16  4.65 31.94                                                             
C 24.16  4.65 46.14                                                             
C 24.16  4.65 60.34                                                             
C 28.18  2.32  3.55                                                             
C 28.18  2.32 17.75                                                             
C 28.18  2.32 31.94                                                             
C 28.18  2.32 46.14                                                             
C 28.18  2.32 60.34                                                             
C 12.08 16.27  3.55                                                             
C 12.08 16.27 17.75                                                             
C 12.08 16.27 31.94                                                             
C 12.08 16.27 46.14                                                             
C 12.08 16.27 60.34                                                             
C 16.10 13.95  3.55                                                             
C 16.10 13.95 17.75                                                             
C 16.10 13.95 31.94                                                             
C 16.10 13.95 46.14                                                             
C 16.10 13.95 60.34                                                             
C 20.13 11.62  3.55                                                             
C 20.13 11.62 17.75                                                             
C 20.13 11.62 31.94                                                             
C 20.13 11.62 46.14                                                             
C 20.13 11.62 60.34                                                             
C 24.16  9.30  3.55                                                             
C 24.16  9.30 17.75                                                             
C 24.16  9.30 31.94                                                             
C 24.16  9.30 46.14                                                             
C 24.16  9.30 60.34                                                             
C 28.18  6.97  3.55                                                             
C 28.18  6.97 17.75                                                             
C 28.18  6.97 31.94                                                             
C 28.18  6.97 46.14                                                             
C 28.18  6.97 60.34                                                             
C 20.13 16.27  3.55                                                             
C 20.13 16.27 17.75                                                             
C 20.13 16.27 31.94                                                             
C 20.13 16.27 46.14                                                             
C 20.13 16.27 60.34                                                             
C 24.16 13.95  3.55                                                             
C 24.16 13.95 17.75                                                             
C 24.16 13.95 31.94                                                             
C 24.16 13.95 46.14                                                             
C 24.16 13.95 60.34                                                             
C 28.18 11.62  3.55                                                             
C 28.18 11.62 17.75                                                             
C 28.18 11.62 31.94                                                             
C 28.18 11.62 46.14                                                             
C 28.18 11.62 60.34                                                             
C 28.18 16.27  3.55                                                             
C 28.18 16.27 17.75                                                             
C 28.18 16.27 31.94                                                             
C 28.18 16.27 46.14                                                             
C 28.18 16.27 60.34                                                             
C  0.00  0.00 10.65                                                             
C  0.00  0.00 24.85                                                             
C  0.00  0.00 39.04                                                             
C  0.00  0.00 53.24                                                             
C  0.00  0.00 67.44                                                             
C  0.00  4.65 10.65                                                             
C  0.00  4.65 24.85                                                             
C  0.00  4.65 39.04                                                             
C  0.00  4.65 53.24                                                             
C  0.00  4.65 67.44                                                             
C  4.03  2.32 10.65                                                             
C  4.03  2.32 24.85                                                             
C  4.03  2.32 39.04                                                             
C  4.03  2.32 53.24                                                             
C  4.03  2.32 67.44                                                             
C  8.05  0.00 10.65                                                             
C  8.05  0.00 24.85                                                             
C  8.05  0.00 39.04                                                             
C  8.05  0.00 53.24                                                             
C  8.05  0.00 67.44                                                             
C  0.00  9.30 10.65                                                             
C  0.00  9.30 24.85                                                             
C  0.00  9.30 39.04                                                             
C  0.00  9.30 53.24                                                             
C  0.00  9.30 67.44                                                             
C  4.03  6.97 10.65                                                             
C  4.03  6.97 24.85                                                             
C  4.03  6.97 39.04                                                             
C  4.03  6.97 53.24                                                             
C  4.03  6.97 67.44                                                             
C  8.05  4.65 10.65                                                             
C  8.05  4.65 24.85                                                             
C  8.05  4.65 39.04                                                             
C  8.05  4.65 53.24                                                             
C  8.05  4.65 67.44                                                             
C 12.08  2.32 10.65                                                             
C 12.08  2.32 24.85                                                             
C 12.08  2.32 39.04                                                             
C 12.08  2.32 53.24                                                             
C 12.08  2.32 67.44                                                             
C 16.10  0.00 10.65                                                             
C 16.10  0.00 24.85                                                             
C 16.10  0.00 39.04                                                             
C 16.10  0.00 53.24                                                             
C 16.10  0.00 67.44                                                             
C  0.00 13.95 10.65                                                             
C  0.00 13.95 24.85                                                             
C  0.00 13.95 39.04                                                             
C  0.00 13.95 53.24                                                             
C  0.00 13.95 67.44                                                             
C  4.03 11.62 10.65                                                             
C  4.03 11.62 24.85                                                             
C  4.03 11.62 39.04                                                             
C  4.03 11.62 53.24                                                             
C  4.03 11.62 67.44                                                             
C  8.05  9.30 10.65                                                             
C  8.05  9.30 24.85                                                             
C  8.05  9.30 39.04                                                             
C  8.05  9.30 53.24                                                             
C  8.05  9.30 67.44                                                             
C 12.08  6.97 10.65                                                             
C 12.08  6.97 24.85                                                             
C 12.08  6.97 39.04                                                             
C 12.08  6.97 53.24                                                             
C 12.08  6.97 67.44                                                             
C 16.10  4.65 10.65                                                             
C 16.10  4.65 24.85                                                             
C 16.10  4.65 39.04                                                             
C 16.10  4.65 53.24                                                             
C 16.10  4.65 67.44                                                             
C 20.13  2.32 10.65                                                             
C 20.13  2.32 24.85                                                             
C 20.13  2.32 39.04                                                             
C 20.13  2.32 53.24                                                             
C 20.13  2.32 67.44                                                             
C 24.16  0.00 10.65                                                             
C 24.16  0.00 24.85                                                             
C 24.16  0.00 39.04                                                             
C 24.16  0.00 53.24                                                             
C 24.16  0.00 67.44                                                             
C  4.03 16.27 10.65                                                             
C  4.03 16.27 24.85                                                             
C  4.03 16.27 39.04                                                             
C  4.03 16.27 53.24                                                             
C  4.03 16.27 67.44                                                             
C  8.05 13.95 10.65                                                             
C  8.05 13.95 24.85                                                             
C  8.05 13.95 39.04                                                             
C  8.05 13.95 53.24                                                             
C  8.05 13.95 67.44                                                             
C 12.08 11.62 10.65                                                             
C 12.08 11.62 24.85                                                             
C 12.08 11.62 39.04                                                             
C 12.08 11.62 53.24                                                             
C 12.08 11.62 67.44                                                             
C 16.10  9.30 10.65                                                             
C 16.10  9.30 24.85                                                             
C 16.10  9.30 39.04                                                             
C 16.10  9.30 53.24                                                             
C 16.10  9.30 67.44                                                             
C 20.13  6.97 10.65                                                             
C 20.13  6.97 24.85                                                             
C 20.13  6.97 39.04                                                             
C 20.13  6.97 53.24                                                             
C 20.13  6.97 67.44                                                             
C 24.16  4.65 10.65                                                             
C 24.16  4.65 24.85                                                             
C 24.16  4.65 39.04                                                             
C 24.16  4.65 53.24                                                             
C 24.16  4.65 67.44                                                             
C 28.18  2.32 10.65                                                             
C 28.18  2.32 24.85                                                             
C 28.18  2.32 39.04                                                             
C 28.18  2.32 53.24                                                             
C 28.18  2.32 67.44                                                             
C 12.08 16.27 10.65                                                             
C 12.08 16.27 24.85                                                             
C 12.08 16.27 39.04                                                             
C 12.08 16.27 53.24                                                             
C 12.08 16.27 67.44                                                             
C 16.10 13.95 10.65                                                             
C 16.10 13.95 24.85                                                             
C 16.10 13.95 39.04                                                             
C 16.10 13.95 53.24                                                             
C 16.10 13.95 67.44                                                             
C 20.13 11.62 10.65                                                             
C 20.13 11.62 24.85                                                             
C 20.13 11.62 39.04                                                             
C 20.13 11.62 53.24                                                             
C 20.13 11.62 67.44                                                             
C 24.16  9.30 10.65                                                             
C 24.16  9.30 24.85                                                             
C 24.16  9.30 39.04                                                             
C 24.16  9.30 53.24                                                             
C 24.16  9.30 67.44                                                             
C 28.18  6.97 10.65                                                             
C 28.18  6.97 24.85                                                             
C 28.18  6.97 39.04                                                             
C 28.18  6.97 53.24                                                             
C 28.18  6.97 67.44                                                             
C 20.13 16.27 10.65                                                             
C 20.13 16.27 24.85                                                             
C 20.13 16.27 39.04                                                             
C 20.13 16.27 53.24                                                             
C 20.13 16.27 67.44                                                             
C 24.16 13.95 10.65                                                             
C 24.16 13.95 24.85                                                             
C 24.16 13.95 39.04                                                             
C 24.16 13.95 53.24                                                             
C 24.16 13.95 67.44                                                             
C 28.18 11.62 10.65                                                             
C 28.18 11.62 24.85                                                             
C 28.18 11.62 39.04                                                             
C 28.18 11.62 53.24                                                             
C 28.18 11.62 67.44                                                             
C 28.18 16.27 10.65                                                             
C 28.18 16.27 24.85                                                             
C 28.18 16.27 39.04                                                             
C 28.18 16.27 53.24                                                             
C 28.18 16.27 67.44                                                             
C  1.34  2.32  3.55                                                             
C  1.34  2.32 17.75                                                             
C  1.34  2.32 31.94                                                             
C  1.34  2.32 46.14                                                             
C  1.34  2.32 60.34                                                             
C  5.37  0.00  3.55                                                             
C  5.37  0.00 17.75                                                             
C  5.37  0.00 31.94                                                             
C  5.37  0.00 46.14                                                             
C  5.37  0.00 60.34                                                             
C  1.34  6.97  3.55                                                             
C  1.34  6.97 17.75                                                             
C  1.34  6.97 31.94                                                             
C  1.34  6.97 46.14                                                             
C  1.34  6.97 60.34                                                             
C  5.37  4.65  3.55                                                             
C  5.37  4.65 17.75                                                             
C  5.37  4.65 31.94                                                             
C  5.37  4.65 46.14                                                             
C  5.37  4.65 60.34                                                             
C  9.39  2.32  3.55                                                             
C  9.39  2.32 17.75                                                             
C  9.39  2.32 31.94                                                             
C  9.39  2.32 46.14                                                             
C  9.39  2.32 60.34                                                             
C 13.42  0.00  3.55                                                             
C 13.42  0.00 17.75                                                             
C 13.42  0.00 31.94                                                             
C 13.42  0.00 46.14                                                             
C 13.42  0.00 60.34                                                             
C  1.34 11.62  3.55                                                             
C  1.34 11.62 17.75                                                             
C  1.34 11.62 31.94                                                             
C  1.34 11.62 46.14                                                             
C  1.34 11.62 60.34                                                             
C  5.37  9.30  3.55                                                             
C  5.37  9.30 17.75                                                             
C  5.37  9.30 31.94                                                             
C  5.37  9.30 46.14                                                             
C  5.37  9.30 60.34                                                             
C  9.39  6.97  3.55                                                             
C  9.39  6.97 17.75                                                             
C  9.39  6.97 31.94                                                             
C  9.39  6.97 46.14                                                             
C  9.39  6.97 60.34                                                             
C 13.42  4.65  3.55                                                             
C 13.42  4.65 17.75                                                             
C 13.42  4.65 31.94                                                             
C 13.42  4.65 46.14                                                             
C 13.42  4.65 60.34                                                             
C 17.45  2.32  3.55                                                             
C 17.45  2.32 17.75                                                             
C 17.45  2.32 31.94                                                             
C 17.45  2.32 46.14                                                             
C 17.45  2.32 60.34                                                             
C 21.47  0.00  3.55                                                             
C 21.47  0.00 17.75                                                             
C 21.47  0.00 31.94                                                             
C 21.47  0.00 46.14                                                             
C 21.47  0.00 60.34                                                             
C  1.34 16.27  3.55                                                             
C  1.34 16.27 17.75                                                             
C  1.34 16.27 31.94                                                             
C  1.34 16.27 46.14                                                             
C  1.34 16.27 60.34                                                             
C  5.37 13.95  3.55                                                             
C  5.37 13.95 17.75                                                             
C  5.37 13.95 31.94                                                             
C  5.37 13.95 46.14                                                             
C  5.37 13.95 60.34                                                             
C  9.39 11.62  3.55                                                             
C  9.39 11.62 17.75                                                             
C  9.39 11.62 31.94                                                             
C  9.39 11.62 46.14                                                             
C  9.39 11.62 60.34                                                             
C 13.42  9.30  3.55                                                             
C 13.42  9.30 17.75                                                             
C 13.42  9.30 31.94                                                             
C 13.42  9.30 46.14                                                             
C 13.42  9.30 60.34                                                             
C 17.45  6.97  3.55                                                             
C 17.45  6.97 17.75                                                             
C 17.45  6.97 31.94                                                             
C 17.45  6.97 46.14                                                             
C 17.45  6.97 60.34                                                             
C 21.47  4.65  3.55                                                             
C 21.47  4.65 17.75                                                             
C 21.47  4.65 31.94                                                             
C 21.47  4.65 46.14                                                             
C 21.47  4.65 60.34                                                             
C 25.50  2.32  3.55                                                             
C 25.50  2.32 17.75                                                             
C 25.50  2.32 31.94                                                             
C 25.50  2.32 46.14                                                             
C 25.50  2.32 60.34                                                             
C 29.52  0.00  3.55                                                             
C 29.52  0.00 17.75                                                             
C 29.52  0.00 31.94                                                             
C 29.52  0.00 46.14                                                             
C 29.52  0.00 60.34                                                             
C  9.39 16.27  3.55                                                             
C  9.39 16.27 17.75                                                             
C  9.39 16.27 31.94                                                             
C  9.39 16.27 46.14                                                             
C  9.39 16.27 60.34                                                             
C 13.42 13.95  3.55                                                             
C 13.42 13.95 17.75                                                             
C 13.42 13.95 31.94                                                             
C 13.42 13.95 46.14                                                             
C 13.42 13.95 60.34                                                             
C 17.45 11.62  3.55                                                             
C 17.45 11.62 17.75                                                             
C 17.45 11.62 31.94                                                             
C 17.45 11.62 46.14                                                             
C 17.45 11.62 60.34                                                             
C 21.47  9.30  3.55                                                             
C 21.47  9.30 17.75                                                             
C 21.47  9.30 31.94                                                             
C 21.47  9.30 46.14                                                             
C 21.47  9.30 60.34                                                             
C 25.50  6.97  3.55                                                             
C 25.50  6.97 17.75                                                             
C 25.50  6.97 31.94                                                             
C 25.50  6.97 46.14                                                             
C 25.50  6.97 60.34                                                             
C 29.52  4.65  3.55                                                             
C 29.52  4.65 17.75                                                             
C 29.52  4.65 31.94                                                             
C 29.52  4.65 46.14                                                             
C 29.52  4.65 60.34                                                             
C 17.45 16.27  3.55                                                             
C 17.45 16.27 17.75                                                             
C 17.45 16.27 31.94                                                             
C 17.45 16.27 46.14                                                             
C 17.45 16.27 60.34                                                             
C 21.47 13.95  3.55                                                             
C 21.47 13.95 17.75                                                             
C 21.47 13.95 31.94                                                             
C 21.47 13.95 46.14                                                             
C 21.47 13.95 60.34                                                             
C 25.50 11.62  3.55                                                             
C 25.50 11.62 17.75                                                             
C 25.50 11.62 31.94                                                             
C 25.50 11.62 46.14                                                             
C 25.50 11.62 60.34                                                             
C 29.52  9.30  3.55                                                             
C 29.52  9.30 17.75                                                             
C 29.52  9.30 31.94                                                             
C 29.52  9.30 46.14                                                             
C 29.52  9.30 60.34                                                             
C 25.50 16.27  3.55                                                             
C 25.50 16.27 17.75                                                             
C 25.50 16.27 31.94                                                             
C 25.50 16.27 46.14                                                             
C 25.50 16.27 60.34                                                             
C 29.52 13.95  3.55                                                             
C 29.52 13.95 17.75                                                             
C 29.52 13.95 31.94                                                             
C 29.52 13.95 46.14                                                             
C 29.52 13.95 60.34                                                             
C  2.68  0.00 10.65                                                             
C  2.68  0.00 24.85                                                             
C  2.68  0.00 39.04                                                             
C  2.68  0.00 53.24                                                             
C  2.68  0.00 67.44                                                             
C  2.68  4.65 10.65                                                             
C  2.68  4.65 24.85                                                             
C  2.68  4.65 39.04                                                             
C  2.68  4.65 53.24                                                             
C  2.68  4.65 67.44                                                             
C  6.71  2.32 10.65                                                             
C  6.71  2.32 24.85                                                             
C  6.71  2.32 39.04                                                             
C  6.71  2.32 53.24                                                             
C  6.71  2.32 67.44                                                             
C 10.74  0.00 10.65                                                             
C 10.74  0.00 24.85                                                             
C 10.74  0.00 39.04                                                             
C 10.74  0.00 53.24                                                             
C 10.74  0.00 67.44                                                             
C  2.68  9.30 10.65                                                             
C  2.68  9.30 24.85                                                             
C  2.68  9.30 39.04                                                             
C  2.68  9.30 53.24                                                             
C  2.68  9.30 67.44                                                             
C  6.71  6.97 10.65                                                             
C  6.71  6.97 24.85                                                             
C  6.71  6.97 39.04                                                             
C  6.71  6.97 53.24                                                             
C  6.71  6.97 67.44                                                             
C 10.74  4.65 10.65                                                             
C 10.74  4.65 24.85                                                             
C 10.74  4.65 39.04                                                             
C 10.74  4.65 53.24                                                             
C 10.74  4.65 67.44                                                             
C 14.76  2.32 10.65                                                             
C 14.76  2.32 24.85                                                             
C 14.76  2.32 39.04                                                             
C 14.76  2.32 53.24                                                             
C 14.76  2.32 67.44                                                             
C 18.79  0.00 10.65                                                             
C 18.79  0.00 24.85                                                             
C 18.79  0.00 39.04                                                             
C 18.79  0.00 53.24                                                             
C 18.79  0.00 67.44                                                             
C  2.68 13.95 10.65                                                             
C  2.68 13.95 24.85                                                             
C  2.68 13.95 39.04                                                             
C  2.68 13.95 53.24                                                             
C  2.68 13.95 67.44                                                             
C  6.71 11.62 10.65                                                             
C  6.71 11.62 24.85                                                             
C  6.71 11.62 39.04                                                             
C  6.71 11.62 53.24                                                             
C  6.71 11.62 67.44                                                             
C 10.74  9.30 10.65                                                             
C 10.74  9.30 24.85                                                             
C 10.74  9.30 39.04                                                             
C 10.74  9.30 53.24                                                             
C 10.74  9.30 67.44                                                             
C 14.76  6.97 10.65                                                             
C 14.76  6.97 24.85                                                             
C 14.76  6.97 39.04                                                             
C 14.76  6.97 53.24                                                             
C 14.76  6.97 67.44                                                             
C 18.79  4.65 10.65                                                             
C 18.79  4.65 24.85                                                             
C 18.79  4.65 39.04                                                             
C 18.79  4.65 53.24                                                             
C 18.79  4.65 67.44                                                             
C 22.81  2.32 10.65                                                             
C 22.81  2.32 24.85                                                             
C 22.81  2.32 39.04                                                             
C 22.81  2.32 53.24                                                             
C 22.81  2.32 67.44                                                             
C 26.84  0.00 10.65                                                             
C 26.84  0.00 24.85                                                             
C 26.84  0.00 39.04                                                             
C 26.84  0.00 53.24                                                             
C 26.84  0.00 67.44                                                             
C  6.71 16.27 10.65                                                             
C  6.71 16.27 24.85                                                             
C  6.71 16.27 39.04                                                             
C  6.71 16.27 53.24                                                             
C  6.71 16.27 67.44                                                             
C 10.74 13.95 10.65                                                             
C 10.74 13.95 24.85                                                             
C 10.74 13.95 39.04                                                             
C 10.74 13.95 53.24                                                             
C 10.74 13.95 67.44                                                             
C 14.76 11.62 10.65                                                             
C 14.76 11.62 24.85                                                             
C 14.76 11.62 39.04                                                             
C 14.76 11.62 53.24                                                             
C 14.76 11.62 67.44                                                             
C 18.79  9.30 10.65                                                             
C 18.79  9.30 24.85                                                             
C 18.79  9.30 39.04                                                             
C 18.79  9.30 53.24                                                             
C 18.79  9.30 67.44                                                             
C 22.81  6.97 10.65                                                             
C 22.81  6.97 24.85                                                             
C 22.81  6.97 39.04                                                             
C 22.81  6.97 53.24                                                             
C 22.81  6.97 67.44                                                             
C 26.84  4.65 10.65                                                             
C 26.84  4.65 24.85                                                             
C 26.84  4.65 39.04                                                             
C 26.84  4.65 53.24                                                             
C 26.84  4.65 67.44                                                             
C 30.86  2.32 10.65                                                             
C 30.86  2.32 24.85                                                             
C 30.86  2.32 39.04                                                             
C 30.86  2.32 53.24                                                             
C 30.86  2.32 67.44                                                             
C 14.76 16.27 10.65                                                             
C 14.76 16.27 24.85                                                             
C 14.76 16.27 39.04                                                             
C 14.76 16.27 53.24                                                             
C 14.76 16.27 67.44                                                             
C 18.79 13.95 10.65                                                             
C 18.79 13.95 24.85                                                             
C 18.79 13.95 39.04                                                             
C 18.79 13.95 53.24                                                             
C 18.79 13.95 67.44                                                             
C 22.81 11.62 10.65                                                             
C 22.81 11.62 24.85                                                             
C 22.81 11.62 39.04                                                             
C 22.81 11.62 53.24                                                             
C 22.81 11.62 67.44                                                             
C 26.84  9.30 10.65                                                             
C 26.84  9.30 24.85                                                             
C 26.84  9.30 39.04                                                             
C 26.84  9.30 53.24                                                             
C 26.84  9.30 67.44                                                             
C 30.86  6.97 10.65                                                             
C 30.86  6.97 24.85                                                             
C 30.86  6.97 39.04                                                             
C 30.86  6.97 53.24                                                             
C 30.86  6.97 67.44                                                             
C 22.81 16.27 10.65                                                             
C 22.81 16.27 24.85                                                             
C 22.81 16.27 39.04                                                             
C 22.81 16.27 53.24                                                             
C 22.81 16.27 67.44                                                             
C 26.84 13.95 10.65                                                             
C 26.84 13.95 24.85                                                             
C 26.84 13.95 39.04                                                             
C 26.84 13.95 53.24                                                             
C 26.84 13.95 67.44                                                             
C 30.86 11.62 10.65                                                             
C 30.86 11.62 24.85                                                             
C 30.86 11.62 39.04                                                             
C 30.86 11.62 53.24                                                             
C 30.86 11.62 67.44                                                             
C 30.86 16.27 10.65                                                             
C 30.86 16.27 24.85                                                             
C 30.86 16.27 39.04                                                             
C 30.86 16.27 53.24                                                             
C 30.86 16.27 67.44                                                             
%ENDBLOCK POSITIONS_ABS                                                         

--------------------------------------------------------------------------------
-------------------------------- END INPUT FILE --------------------------------
--------------------------------------------------------------------------------


 
<<<<<<<<<<<<<<<<<<<<<<<<<<<<<<<<< Full system >>>>>>>>>>>>>>>>>>>>>>>>>>>>>>>>>>
<<<<<<<<<<<<<<<<<<<<<<<<<<< PAW Dataset information >>>>>>>>>>>>>>>>>>>>>>>>>>>
File: ~/pp/paw/c_pbe_abinit.paw; rc = 1.25 bohr; shape type =  3; rshape = 1.25 bohr;
  Atomic number:  6;  ionic charge:  4.000000
    Partial Wave 1: l = 0
    Partial Wave 2: l = 0
    Partial Wave 3: l = 1
    Partial Wave 4: l = 1
  Core charge supplied for Nonlinear Core Corrections
<<<<<<<<<<<<<<<<<<<<<<<<<<<<<<<<<<<<<<< >>>>>>>>>>>>>>>>>>>>>>>>>>>>>>>>>>>>>>>

-------------------------- Atom counting information ---------------------------
Symbol    Natoms    Nngwfs    Nprojs
  C        640      2560      5120
.......   ......    ......    ......
Totals:    640      2560      5120
--------------------------------------------------------------------------------

=============================== PSINC grid sizes ===============================
                      Simulation cell:   63 x  35 x 140
                              FFT-box:   63 x  35 x 117
                                  PPD:    7 x   5 x   1
Grid space d1=  0.511269841270a0 (KE cutoff=  29.06054Eh = 790.77748eV)
Grid space d2=  0.531142857143a0 (KE cutoff=  26.92659Eh = 732.70972eV)
Grid space d3=  0.507071428571a0 (KE cutoff=  29.54376Eh = 803.92653eV)
================================================================================
  
WARNING in cell_grid_distribute:
Average of less than one 23-slab per node, so workload cannot be
equally balanced between nodes.

********************* Fourier parallelisation information **********************
       Coarse grid (whole simulation cell) dimensions:     63    35   140
          Real-space ('12') slabs/node (min max mean):      3     4     3
         Recip-space ('23') slabs/node (min max mean):      0     1     0
********************************************************************************

********************* Fourier parallelisation information **********************
       Double grid (whole simulation cell) dimensions:    126    70   280
          Real-space ('12') slabs/node (min max mean):      7     7     7
         Recip-space ('23') slabs/node (min max mean):      1     2     1
********************************************************************************

Atom SCF Calculation for C  : Z (AE atom) =   6 : Z (PS atom) =   4
Config String: 2s2 2p2
Orbitals (num,occ):  2     2.00 2.00
Orbitals   (num,l):  2        0    1
Real-space Grid (nr,dr,rmax): 1293    0.0069659443    9.0000000000
Spherical Bessel Basis (nsws,lmax,cutoff):   37    2  161.4736382572
Confining potential (l,width,scale):  0    3.0000000000  100.0000000000
Confining potential (l,width,scale):  1    3.0000000000  100.0000000000
  1         -5.4795203654   -1.3252209296    4.5135257941   -1.6370402169
  2         -5.4480859746   -1.4027979239    4.4305951748   -1.6109819005
  3         -5.4553164790   -1.4212834043    4.4102618304   -1.6059039466
  4         -5.4627841133   -1.4247091338    4.4065122085   -1.6052907585
  5         -5.4662306655   -1.4266814823    4.4043715292   -1.6049352647
  6         -5.4679520247   -1.4277352742    4.4032348712   -1.6047493439
  7         -5.4688359568   -1.4282868030    4.4026432892   -1.6046541449
  8         -5.4692951245   -1.4285734530    4.4023374832   -1.6046056242
  9         -5.4695349887   -1.4287220785    4.4021797781   -1.6045809101
 10         -5.4696606791   -1.4287991022    4.4020984905   -1.6045683155
 11         -5.4697266650   -1.4288390363    4.4020565747   -1.6045618912
 12         -5.4697613504   -1.4288597596    4.4020349416   -1.6045586107
 13         -5.4697795998   -1.4288705262    4.4020237638   -1.6045569335
 14         -5.4697892089   -1.4288761271    4.4020179806   -1.6045560749
 15         -5.4697942720   -1.4288790448    4.4020149844   -1.6045556348
 16         -5.4697969415   -1.4288805668    4.4020134298   -1.6045554088
 17         -5.4697983498   -1.4288813619    4.4020126220   -1.6045552927
 18         -5.4697990933   -1.4288817779    4.4020122017   -1.6045552329
 19         -5.4697994860   -1.4288819957    4.4020119826   -1.6045552021
 20         -5.4697996936   -1.4288821100    4.4020118683   -1.6045551862
 21         -5.4697998034   -1.4288821701    4.4020118085   -1.6045551780
 22         -5.4697998614   -1.4288822017    4.4020117772   -1.6045551737
Atom SCF converged after  22 iterations to a total energy of     -5.46979986

Determining parallel strategy ...
... using space-filling curve
... NGWF load balancing: max     64;  min     64;  average     64
... Projector load balancing: max    128;  min    128;  average    128
... done
Calculating Ewald energy ...
              Ewald: real-space energy =    9484.647111
        Ewald: reciprocal-space energy =       0.376905
         Ewald: (sum_charge)**2 Energy =   10895.174240
         Ewald: (sum_charge**2) Energy =     861.339153
                          Ewald Energy =   -2271.489376
Basis initialisation ...... NGWF spheres initialised
... Projector spheres initialised
... NGWF tight boxes initialised
... Projector tight boxes initialised
... Tight-boxes gathered
... NGWF basis size (local,global):     691956  27874240
... PAW projector initialisation
... done

============================= Charge Augmentation ==============================
                           Aug box size:   11 x  11 x  11
================================================================================

========================== Sparse matrix information ===========================
                        Overlap matrix filling:  40.94%
                        Density kernel filling: 100.00%
              NGWF-Proj overlap matrix filling:  12.19%
                    Aug Overlap matrix filling:  47.03%
                    Hamiltonian matrix filling:  47.03%
                  NGWF diagonal matrix filling:   0.16%
                             KS matrix filling: 100.00% 
                           KSKS matrix filling: 100.00% 
================================================================================

Sparse matrix initialisation ... done
NGWF initialisation ...... done
============ Calculation of NGWF S^-1 using Hotelling algorithm ================ 
         Iteration  |  Frobenius norm and Maximum abs value    (of I-S*S_n^-1)   
               1       0.48960197E+02     0.97467636E+00
               2       0.47668421E+02     0.95122442E+00
               3       0.45755687E+02     0.90906387E+00
               4       0.43308419E+02     0.83927547E+00
               5       0.40397703E+02     0.73654263E+00
               6       0.37042383E+02     0.67422581E+00
               7       0.33584715E+02     0.62736255E+00
               8       0.30277305E+02     0.58759252E+00
               9       0.26674155E+02     0.54222338E+00
              10       0.22071560E+02     0.47001383E+00
              11       0.16093236E+02     0.35656232E+00
              12       0.93163568E+01     0.21049602E+00
              13       0.35911628E+01     0.78722219E-01
              14       0.64086921E+00     0.12759002E-01
              15       0.24599514E-01     0.41609706E-03
              16       0.48269167E-04     0.58669887E-06
              17       0.28500455E-09     0.20722313E-11
              18       0.70498407E-13     0.31086245E-14
================================================================================
Calculating core density ...
================================= Core Density =================================
               Core den box size:   21 x  21 x  21
================================================================================
 ... done
Up spin density kernel initialisation ...... done

Writing density kernel to file "3.756468_GO_manual_4x64graphite.dkn" ... done

>>> Optimising kernel for current NGWFs:

--------------------------- Ensemble-DFT optimisation --------------------------
Running ScaLAPACK on   40 processor(s).

--------------------------------------------------------------------------------
  Iter                              Commutator    Free_energy(A=E-TS)     DeltaA
#    0                          0.000034664838   -3648.73534071953191  -3.65E+03

Step                       =       0.381966011250
Energy                     =   -3648.735314970465
Entropy (-TS)              =      -0.000025748912
Free energy (A=E-TS)       =   -3648.735340719532
Est. 0K Energy 0.5*(E+A)   =   -3648.735327844998
Residual Non-orthogonality =       0.000000000000
Residual N_electrons       =      -0.000000000155

Spin          Integrated_Ne            Fermi_level     Delta_Fermi_level
   1      2560.000000000974         0.159244940468              1.59E-01

                           Spin 1          
     Orb      H-eigenvalues     Occupancies
       1 |    -0.5641786807    1.0000000000 | 
                          ------
    1276 |     0.1239170263    0.9999857062 | 
    1277 |     0.1245400287    0.9999825986 | 
    1278 |     0.1245464612    0.9999825633 | 
    1279 |     0.1245982158    0.9999822760 | 
    1280 |     0.1252281455    0.9999783753 | 
                 - Gap at zero temperature -
    1281 |     0.1955518055    0.0000104929 | 
    1282 |     0.1955582618    0.0000104715 | 
    1283 |     0.1955589461    0.0000104693 | 
    1284 |     0.1956997680    0.0000100139 | 
    1285 |     0.1957030229    0.0000100036 | 
                          ------
    2560 |     0.9934367604    0.0000000000 | 

                       |  Abs_value |  Threshold | Converged
     Delta_Free_energy |   3.65E+03 |   1.00E-06 |        No
     Delta_Energy      |   3.65E+03 |   1.00E-04 |        No
     Delta_Entropy     |   2.57E-05 |   1.00E-04 |       Yes
     Commutator        |   3.47E-05 |   1.00E-05 |        No
     Delta_Fermi_level |   1.59E-01 |   1.00E-03 |        No

  Line search of the free energy minimum:
  Step_type        Step             Free_energy   Predicted_free_energy
.   Initial    0.000000    -3648.73534071953191
.    Trial1    0.381966    -3648.73664730487508
.    Trial2    0.618034    -3648.73689951514052
. Quadratic    0.640351    -3648.73690149335198    -3648.73690141070892

--------------------------------------------------------------------------------
  Iter                              Commutator    Free_energy(A=E-TS)     DeltaA
#    1                          0.000019393211   -3648.73690149335198  -1.56E-03

Step                       =       0.640350644333
Energy                     =   -3648.736875879153
Entropy (-TS)              =      -0.000025614170
Free energy (A=E-TS)       =   -3648.736901493352
Est. 0K Energy 0.5*(E+A)   =   -3648.736888686252
Residual Non-orthogonality =       0.000000000000
Residual N_electrons       =      -0.000000000029

Spin          Integrated_Ne            Fermi_level     Delta_Fermi_level
   1      2560.000000000186         0.157824269092             -1.42E-03

                           Spin 1          
     Orb      H-eigenvalues     Occupancies
       1 |    -0.5675901504    1.0000000000 | 
                          ------
    1276 |     0.1225534212    0.9999854463 | 
    1277 |     0.1230093697    0.9999831926 | 
    1278 |     0.1230166441    0.9999831540 | 
    1279 |     0.1232282132    0.9999819901 | 
    1280 |     0.1236916434    0.9999791520 | 
                 - Gap at zero temperature -
    1281 |     0.1940597169    0.0000107322 | 
    1282 |     0.1940908039    0.0000106274 | 
    1283 |     0.1940912018    0.0000106260 | 
    1284 |     0.1942254637    0.0000101850 | 
    1285 |     0.1942369971    0.0000101479 | 
                          ------
    2560 |     0.9908135169    0.0000000000 | 

                       |  Abs_value |  Threshold | Converged
     Delta_Free_energy |   1.56E-03 |   1.00E-06 |        No
     Delta_Energy      |   1.56E-03 |   1.00E-04 |        No
     Delta_Entropy     |   1.35E-07 |   1.00E-04 |       Yes
     Commutator        |   1.94E-05 |   1.00E-05 |        No
     Delta_Fermi_level |   1.42E-03 |   1.00E-03 |        No

  Line search of the free energy minimum:
  Step_type        Step             Free_energy   Predicted_free_energy
.   Initial    0.000000    -3648.73690149335198
.    Trial1    0.640351    -3648.73634861012943
.    Trial2    0.244592    -3648.73725220612550
. Quadratic    0.245804    -3648.73725221310224    -3648.73725221465611

--------------------------------------------------------------------------------
  Iter                              Commutator    Free_energy(A=E-TS)     DeltaA
#    2                          0.000009628206   -3648.73725221310224  -3.51E-04

Step                       =       0.245804447345
Energy                     =   -3648.737226625703
Entropy (-TS)              =      -0.000025587126
Free energy (A=E-TS)       =   -3648.737252213102
Est. 0K Energy 0.5*(E+A)   =   -3648.737239419403
Residual Non-orthogonality =       0.000000000000
Residual N_electrons       =      -0.000000000273

Spin          Integrated_Ne            Fermi_level     Delta_Fermi_level
   1      2560.000000001729         0.157630869310             -1.93E-04

                           Spin 1          
     Orb      H-eigenvalues     Occupancies
       1 |    -0.5680623212    1.0000000000 | 
                          ------
    1276 |     0.1223223531    0.9999856184 | 
    1277 |     0.1228361216    0.9999830853 | 
    1278 |     0.1228432757    0.9999830471 | 
    1279 |     0.1229956561    0.9999822114 | 
    1280 |     0.1235168596    0.9999790291 | 
                 - Gap at zero temperature -
    1281 |     0.1938928516    0.0000106427 | 
    1282 |     0.1939235096    0.0000105401 | 
    1283 |     0.1939245182    0.0000105368 | 
    1284 |     0.1940616788    0.0000100902 | 
    1285 |     0.1940732018    0.0000100535 | 
                          ------
    2560 |     0.9904441089    0.0000000000 | 

                       |  Abs_value |  Threshold | Converged
     Delta_Free_energy |   3.51E-04 |   1.00E-06 |        No
     Delta_Energy      |   3.51E-04 |   1.00E-04 |        No
     Delta_Entropy     |   2.70E-08 |   1.00E-04 |       Yes
     Commutator        |   9.63E-06 |   1.00E-05 |       Yes
     Delta_Fermi_level |   1.93E-04 |   1.00E-03 |       Yes

  Line search of the free energy minimum:
  Step_type        Step             Free_energy   Predicted_free_energy
.   Initial    0.000000    -3648.73725221310224
.    Trial1    0.245804    -3648.73732916958897
.    Trial2    0.533882    -3648.73734046759000
. Quadratic    0.428071    -3648.73734620373216    -3648.73734621070071

--------------------------------------------------------------------------------
  Iter                              Commutator    Free_energy(A=E-TS)     DeltaA
#    3                          0.000006433693   -3648.73734620373216  -9.40E-05

Step                       =       0.428070570094
Energy                     =   -3648.737320655340
Entropy (-TS)              =      -0.000025548017
Free energy (A=E-TS)       =   -3648.737346203732
Est. 0K Energy 0.5*(E+A)   =   -3648.737333429536
Residual Non-orthogonality =       0.000000000000
Residual N_electrons       =      -0.000000000375

Spin          Integrated_Ne            Fermi_level     Delta_Fermi_level
   1      2560.000000002382         0.157374562960             -2.56E-04

                           Spin 1          
     Orb      H-eigenvalues     Occupancies
       1 |    -0.5686729342    1.0000000000 | 
                          ------
    1276 |     0.1220412754    0.9999857305 | 
    1277 |     0.1225848275    0.9999830585 | 
    1278 |     0.1225918574    0.9999830209 | 
    1279 |     0.1227130112    0.9999823587 | 
    1280 |     0.1232639139    0.9999790068 | 
                 - Gap at zero temperature -
    1281 |     0.1936530926    0.0000105872 | 
    1282 |     0.1936833953    0.0000104864 | 
    1283 |     0.1936849412    0.0000104813 | 
    1284 |     0.1938245557    0.0000100292 | 
    1285 |     0.1938360734    0.0000099928 | 
                          ------
    2560 |     0.9899812454    0.0000000000 | 

                       |  Abs_value |  Threshold | Converged
     Delta_Free_energy |   9.40E-05 |   1.00E-06 |        No
     Delta_Energy      |   9.40E-05 |   1.00E-04 |       Yes
     Delta_Entropy     |   3.91E-08 |   1.00E-04 |       Yes
     Commutator        |   6.43E-06 |   1.00E-05 |       Yes
     Delta_Fermi_level |   2.56E-04 |   1.00E-03 |       Yes

  Line search of the free energy minimum:
  Step_type        Step             Free_energy   Predicted_free_energy
.   Initial    0.000000    -3648.73734620373216
.    Trial1    0.428071    -3648.73736713009703
.    Trial2    0.646528    -3648.73730101698902
. Quadratic    0.258991    -3648.73738268198304    -3648.73738267351791

--------------------------------------------------------------------------------
  Iter                              Commutator    Free_energy(A=E-TS)     DeltaA
#    4                          0.000003958271   -3648.73738268198304  -3.65E-05

Step                       =       0.258990944203
Energy                     =   -3648.737357148320
[...]
 C   160 -- C   385       -0.10      5.37000
 C   159 -- C   384       -0.10      5.37000
 C   158 -- C   383       -0.10      5.37000
 C   157 -- C   382       -0.10      5.37000
 C   156 -- C   381       -0.10      5.37000
 C   155 -- C   355       -0.10      5.37000
 C   154 -- C   354       -0.10      5.37000
 C   153 -- C   353       -0.10      5.37000
 C   152 -- C   352       -0.10      5.37000
 C   151 -- C   351       -0.10      5.37000
 C   140 -- C   335       -0.10      5.37000
 C   139 -- C   334       -0.10      5.37000
 C   138 -- C   333       -0.10      5.37000
 C   137 -- C   332       -0.10      5.37000
 C   136 -- C   331       -0.10      5.37000
 C   115 -- C   325       -0.10      5.37000
 C   114 -- C   324       -0.10      5.37000
 C   113 -- C   323       -0.10      5.37000
 C   112 -- C   322       -0.10      5.37000
 C   111 -- C   321       -0.10      5.37000
 C   219 -- C   569       -0.10      5.37202
 C   218 -- C   568       -0.10      5.37202
 C   217 -- C   567       -0.10      5.37202
 C   216 -- C   566       -0.10      5.37202
 C   250 -- C   540       -0.10      5.37202
 C   249 -- C   539       -0.10      5.37202
 C   248 -- C   538       -0.10      5.37202
 C   247 -- C   537       -0.10      5.37202
 C   246 -- C   536       -0.10      5.37202
 C   220 -- C   570       -0.10      5.37202
 C   285 -- C   580       -0.10      5.37202
 C   284 -- C   579       -0.10      5.37202
 C   283 -- C   578       -0.10      5.37202
 C   282 -- C   577       -0.10      5.37202
 C   281 -- C   576       -0.10      5.37202
 C   260 -- C   605       -0.10      5.37202
 C   259 -- C   604       -0.10      5.37202
 C   258 -- C   603       -0.10      5.37202
 C   257 -- C   602       -0.10      5.37202
 C   256 -- C   601       -0.10      5.37202
 C   220 -- C   515       -0.10      5.37202
 C   219 -- C   514       -0.10      5.37202
 C   218 -- C   513       -0.10      5.37202
 C   217 -- C   512       -0.10      5.37202
 C   216 -- C   511       -0.10      5.37202
 C   195 -- C   540       -0.10      5.37202
 C   195 -- C   500       -0.10      5.37202
 C   194 -- C   539       -0.10      5.37202
 C   194 -- C   499       -0.10      5.37202
 C   193 -- C   538       -0.10      5.37202
 C   193 -- C   498       -0.10      5.37202
 C   192 -- C   537       -0.10      5.37202
 C   192 -- C   497       -0.10      5.37202
 C   191 -- C   536       -0.10      5.37202
 C   191 -- C   496       -0.10      5.37202
 C   180 -- C   515       -0.10      5.37202
 C   179 -- C   514       -0.10      5.37202
 C   178 -- C   513       -0.10      5.37202
 C   177 -- C   512       -0.10      5.37202
 C   176 -- C   511       -0.10      5.37202
 C    11 -- C   331       -0.10      5.37202
 C   205 -- C   550       -0.10      5.37202
 C   204 -- C   549       -0.10      5.37202
 C   203 -- C   548       -0.10      5.37202
 C   202 -- C   547       -0.10      5.37202
 C   201 -- C   546       -0.10      5.37202
 C    95 -- C   425       -0.10      5.37202
 C    95 -- C   365       -0.10      5.37202
 C    94 -- C   424       -0.10      5.37202
 C    94 -- C   364       -0.10      5.37202
 C    93 -- C   423       -0.10      5.37202
 C    93 -- C   363       -0.10      5.37202
 C    92 -- C   422       -0.10      5.37202
 C    92 -- C   362       -0.10      5.37202
 C    91 -- C   421       -0.10      5.37202
 C    91 -- C   361       -0.10      5.37202
 C    40 -- C   365       -0.10      5.37202
 C    39 -- C   364       -0.10      5.37202
 C    38 -- C   363       -0.10      5.37202
 C    37 -- C   362       -0.10      5.37202
 C    36 -- C   361       -0.10      5.37202
 C    15 -- C   335       -0.10      5.37202
 C    65 -- C   395       -0.10      5.37202
 C    65 -- C   345       -0.10      5.37202
 C    64 -- C   394       -0.10      5.37202
 C    64 -- C   344       -0.10      5.37202
 C    63 -- C   393       -0.10      5.37202
 C    30 -- C   355       -0.10      5.37202
 C    63 -- C   343       -0.10      5.37202
 C    62 -- C   392       -0.10      5.37202
 C    30 -- C   325       -0.10      5.37202
 C    14 -- C   334       -0.10      5.37202
 C    62 -- C   342       -0.10      5.37202
 C    61 -- C   391       -0.10      5.37202
 C    29 -- C   354       -0.10      5.37202
 C    61 -- C   341       -0.10      5.37202
 C    29 -- C   324       -0.10      5.37202
 C   260 -- C   550       -0.10      5.37202
 C   259 -- C   549       -0.10      5.37202
 C    28 -- C   353       -0.10      5.37202
 C   258 -- C   548       -0.10      5.37202
 C   257 -- C   547       -0.10      5.37202
 C   256 -- C   546       -0.10      5.37202
 C    28 -- C   323       -0.10      5.37202
 C    27 -- C   352       -0.10      5.37202
 C    13 -- C   333       -0.10      5.37202
 C    27 -- C   322       -0.10      5.37202
 C   120 -- C   395       -0.10      5.37202
 C    26 -- C   351       -0.10      5.37202
 C   119 -- C   394       -0.10      5.37202
 C   118 -- C   393       -0.10      5.37202
 C    55 -- C   335       -0.10      5.37202
 C   117 -- C   392       -0.10      5.37202
 C    26 -- C   321       -0.10      5.37202
 C   116 -- C   391       -0.10      5.37202
 C    54 -- C   334       -0.10      5.37202
 C    12 -- C   332       -0.10      5.37202
 C    53 -- C   333       -0.10      5.37202
 C   230 -- C   580       -0.10      5.37202
 C   230 -- C   525       -0.10      5.37202
 C   229 -- C   579       -0.10      5.37202
 C   229 -- C   524       -0.10      5.37202
 C   228 -- C   578       -0.10      5.37202
 C    52 -- C   332       -0.10      5.37202
 C   228 -- C   523       -0.10      5.37202
 C   227 -- C   577       -0.10      5.37202
 C   227 -- C   522       -0.10      5.37202
 C   226 -- C   576       -0.10      5.37202
 C   226 -- C   521       -0.10      5.37202
 C    51 -- C   331       -0.10      5.37202
 C    23 -- C   478       -0.10      5.37202
 C    49 -- C   469       -0.10      5.37202
 C    48 -- C   468       -0.10      5.37202
 C    47 -- C   467       -0.10      5.37202
 C    22 -- C   477       -0.10      5.37202
 C    46 -- C   466       -0.10      5.37202
 C    21 -- C   476       -0.10      5.37202
 C    85 -- C   355       -0.10      5.37202
 C    84 -- C   354       -0.10      5.37202
 C    83 -- C   353       -0.10      5.37202
 C    82 -- C   352       -0.10      5.37202
 C    81 -- C   351       -0.10      5.37202
 C    55 -- C   385       -0.10      5.37202
 C    54 -- C   384       -0.10      5.37202
 C    25 -- C   480       -0.10      5.37202
 C    53 -- C   383       -0.10      5.37202
 C    52 -- C   382       -0.10      5.37202
 C    51 -- C   381       -0.10      5.37202
 C    24 -- C   479       -0.10      5.37202
 C    50 -- C   470       -0.10      5.37202
 C    24 -- C   449       -0.10      5.37202
 C     6 -- C   416       -0.10      5.37202
 C    23 -- C   448       -0.10      5.37202
 C    22 -- C   447       -0.10      5.37202
 C    10 -- C   470       -0.10      5.37202
 C     5 -- C   450       -0.10      5.37202
 C    21 -- C   446       -0.10      5.37202
 C    10 -- C   420       -0.10      5.37202
 C     9 -- C   469       -0.10      5.37202
 C     9 -- C   419       -0.10      5.37202
 C     8 -- C   468       -0.10      5.37202
 C     4 -- C   449       -0.10      5.37202
 C   150 -- C   440       -0.10      5.37202
 C   149 -- C   439       -0.10      5.37202
 C   148 -- C   438       -0.10      5.37202
 C   147 -- C   437       -0.10      5.37202
 C     8 -- C   418       -0.10      5.37202
 C   146 -- C   436       -0.10      5.37202
 C     2 -- C   447       -0.10      5.37202
 C   135 -- C   460       -0.10      5.37202
 C     7 -- C   467       -0.10      5.37202
 C   134 -- C   459       -0.10      5.37202
 C   133 -- C   458       -0.10      5.37202
 C   132 -- C   457       -0.10      5.37202
 C   131 -- C   456       -0.10      5.37202
 C     7 -- C   417       -0.10      5.37202
 C     1 -- C   446       -0.10      5.37202
 C     6 -- C   466       -0.10      5.37202
 C    25 -- C   450       -0.10      5.37202
 C     3 -- C   448       -0.10      5.37202
 C   106 -- C   436       -0.10      5.37202
 C   106 -- C   376       -0.10      5.37202
 C    80 -- C   410       -0.10      5.37202
 C    79 -- C   409       -0.10      5.37202
 C    78 -- C   408       -0.10      5.37202
 C    77 -- C   407       -0.10      5.37202
 C    76 -- C   406       -0.10      5.37202
 C   135 -- C   410       -0.10      5.37202
 C   134 -- C   409       -0.10      5.37202
 C   133 -- C   408       -0.10      5.37202
 C   132 -- C   407       -0.10      5.37202
 C   131 -- C   406       -0.10      5.37202
 C   110 -- C   440       -0.10      5.37202
 C   110 -- C   380       -0.10      5.37202
 C   109 -- C   439       -0.10      5.37202
 C   109 -- C   379       -0.10      5.37202
 C   108 -- C   438       -0.10      5.37202
 C   108 -- C   378       -0.10      5.37202
 C   107 -- C   437       -0.10      5.37202
 C   107 -- C   377       -0.10      5.37202
 C   215 -- C   635       -0.10      5.38000
 C   214 -- C   634       -0.10      5.38000
 C   213 -- C   633       -0.10      5.38000
 C   212 -- C   632       -0.10      5.38000
 C   211 -- C   631       -0.10      5.38000
 C   190 -- C   620       -0.10      5.38000
 C   189 -- C   619       -0.10      5.38000
 C   188 -- C   618       -0.10      5.38000
 C   187 -- C   617       -0.10      5.38000
 C   186 -- C   616       -0.10      5.38000
 C   175 -- C   595       -0.10      5.38000
 C   174 -- C   594       -0.10      5.38000
 C   173 -- C   593       -0.10      5.38000
 C   172 -- C   592       -0.10      5.38000
 C   171 -- C   591       -0.10      5.38000
 C   245 -- C   640       -0.10      5.38000
 C   244 -- C   639       -0.10      5.38000
 C   243 -- C   638       -0.10      5.38000
 C   242 -- C   637       -0.10      5.38000
 C   241 -- C   636       -0.10      5.38000
==================================================


=================== Orbital energy and occupancy information ===================

      Total number of orbitals:    2560
        Occupancy sum (kernel):    1280.000000000
   Occupancy sum (eigenvalues):    1280.000000000
                 HOMO-LUMO gap:       0.066876804 Eh
                 Mid-gap level:       0.214607673 Eh

                        Orbital | Energy (Eh) | Occupancy
                            1    -0.506466126   1.0000000
                        .......   ...........   .........
                         1271     0.177061678   0.9999890
                         1272     0.177071441   0.9999890
                         1273     0.177533282   0.9999873
                         1274     0.177543030   0.9999872
                         1275     0.179797216   0.9999740
                         1276     0.179803542   0.9999739
                         1277     0.180267438   0.9999698
                         1278     0.180273707   0.9999698
                         1279     0.180701242   0.9999654
                         1280     0.181169271   0.9999599
                        ....... -- gap at 0K -- .........
                         1281     0.248046075   0.0000167
                         1282     0.248048965   0.0000167
                         1283     0.248295449   0.0000154
                         1284     0.248298329   0.0000154
                         1285     0.248311610   0.0000154
                         1286     0.248314260   0.0000154
                         1287     0.248518870   0.0000144
                         1288     0.248570588   0.0000142
                         1289     0.248573268   0.0000142
                         1290     0.248725071   0.0000135
                        .......   ...........   .........
                         2560     1.108653248   0.0000000

================================================================================

===================== Writing canonical molecular orbitals =====================
| Orbital  Energy (eV)  Norm     |
| HOMO      4.92986672  1.000000 | Writing "3.756468_GO_manual_4x64graphite_HOMO.cube" ... done
Writing "3.756468_GO_manual_4x64graphite_HOMO.dx" ... done
| LUMO      6.74967715  1.000000 | Writing "3.756468_GO_manual_4x64graphite_LUMO.cube" ... done
Writing "3.756468_GO_manual_4x64graphite_LUMO.dx" ... done
================================================================================
 
===================== Density of States (DOS) calculation ======================
Writing "3.756468_GO_manual_4x64graphite_DOS.txt" ...  done
================================================================================
 
Writing bands to file "3.756468_GO_manual_4x64graphite.val_bands" ... done
 
================ Projected Density of States (pDOS) calculation ================
 
Constructing AM resolved functions  ...... done
Writing NGWF plot files in formats: CUBE DX ...  done
 
Performing overlap integrals ...  done
 
Computing pDOS weights ...  done
 
All bands spilling parameter =   3.06 %
Occupancy-weighted spilling parameter =   0.94 %
 
 => Outputting data for OptaDOS <=
 
Writing pDOS weights to file "3.756468_GO_manual_4x64graphite.val_pdos_bin" ... done
 
Writing band gradients to file "3.756468_GO_manual_4x64graphite.val_dome_bin" ... done
 
Writing Castep output cell file to "3.756468_GO_manual_4x64graphite-out.cell" ... done
 
 => Computing Gaussian smeared pDOS <= 
Writing "3.756468_GO_manual_4x64graphite_PDOS.txt" ...  done
 
 => Computing Occupancy-weighted Gaussian smeared pDOS <= 
Writing "3.756468_GO_manual_4x64graphite_occ_PDOS.txt" ...  done
  => Band centres: 
 S band centre of group 1:  -13.786006 eV
 P band centre of group 1:   -6.664882 eV
  Band centres done. <=
  => Integrated number of electrons in each AM band: 
 S num electrons of group 1:  575.436959
 P num electrons of group 1: 1960.444881
  Integrated number of electrons done. <=
================================================================================

------------------------------ TIMING INFORMATION ------------------------------
AVERAGE TIME:    3123.928s on     40 node(s)                                    
TOTAL TIME:      3123.928s on     40 node(s)                                    
================= AVERAGE TIMINGS FROM ALL NODES (CUMULATIVE) ==================
|| TAG                                    #calls    cpu time   %total  Gflops ||
|| work_imbalance                       :     1        0.00s   0.000%  ------ ||
|| paw_tcore_hartree_on_grid            :     1        0.00s   0.000%  ------ ||
|| paw_tcore_density                    :     1        0.01s   0.000%  ------ ||
|| paw_sphere_density_on_grid           :     1        0.02s   0.000%  ------ ||
|| sparse_set_to_garbage                :   135        0.02s   0.001%  ------ ||
|| paw_dij_hartree                      :   280        0.04s   0.001%  ------ ||
|| pseudo_make_structure_factor         :     1        0.06s   0.002%  ------ ||
|| basis_extract_function_from_box      :  1536        0.07s   0.002%  ------ ||
|| paw_species_calc_proj_prec_mat       :     1        0.12s   0.004%  ------ ||
|| paw_dataset_init                     :     1        0.15s   0.005%  ------ ||
|| density_init_guess_real              :     1        0.17s   0.005%  ------ ||
|| ngwfs_initialise_from_radial         :     2        0.66s   0.021%  ------ ||
|| restart_kernel_write                 :    13        0.83s   0.027%  ------ ||
|| sparse_init                          :     1        0.96s   0.031%  ------ ||
|| dense_normal_eigensolve              :     1        1.13s   0.036%  ------ ||
|| hartree_on_grid                      :   210        1.16s   0.037%  ------ ||
|| projectors_init_fftbox_recip         :   121        2.35s   0.075%  ------ ||
|| ewald_calculate_energy               :     1        3.23s   0.103%  ------ ||
|| fourier_apply_box_pair               :  2272        3.76s   0.120% 560.648 ||
|| basis_copy_function_to_box           : 20032        4.34s   0.139%  ------ ||
|| augmentation_screen_dij              :   215        4.77s   0.153%  ------ ||
|| sparse_embed_hotelling_invert_embed  :    23        6.62s   0.212%  ------ ||
|| sw_init                              :     1        6.73s   0.215%  ------ ||
|| ngwf_gradient_coeffs                 :    12        8.56s   0.274%  ------ ||
|| sparse_trace                         :  2534       11.85s   0.379%  ------ ||
|| fourier_apply_cell_backward          :  6481       13.68s   0.438%  62.788 ||
|| fourier_apply_cell_forward           :  6062       13.79s   0.441%  58.241 ||
|| cell_grid_extract_box_real           :  8508       16.28s   0.521%  ------ ||
|| paw_dij_xc                           :   280       18.76s   0.600%  ------ ||
|| cell_grid_deposit_box_real           : 27056       19.56s   0.626%  ------ ||
|| aug_nonlocal_mat                     :   268       27.45s   0.879%  ------ ||
|| augmentation_density_on_grid         :   210       37.79s   1.210%  ------ ||
|| density_fftbox_deposit_to_cell       : 13440       40.18s   1.286%  ------ ||
|| function_ops_brappd_ketppd           :    48       47.58s   1.523%  ------ ||
|| hamiltonian_energy_components        :     3       47.94s   1.535%  ------ ||
|| projectors_func_ovlp_box             :    24       53.73s   1.720%  ------ ||
|| nlxc_vdw_energy                      :   418       57.61s   1.844%  ------ ||
|| eigenstates_pdos                     :     1       57.76s   1.849%  ------ ||
|| eigenstates_calculate                :     1       62.31s   1.994%  ------ ||
|| xc_energy_potential                  :   209       64.86s   2.076%  ------ ||
|| integrals_kinetic                    :    23       76.79s   2.458%  ------ ||
|| dense_eigensolve                     :   183      102.71s   3.288%  ------ ||
|| sparse_product                       :  2569      103.03s   3.298%  ------ ||
|| potential_apply_to_ngwf_batch        :   268      107.60s   3.444%  ------ ||
|| properties_calculate                 :     1      111.25s   3.561%  ------ ||
|| restart_ngwfs_tightbox_output        :    11      121.72s   3.896%  ------ ||
|| basis_dot_function_with_box          : 6.224M     171.64s   5.494%  ------ ||
|| fourier_apply_box                    : 63072      196.36s   6.286% 976.819 ||
|| edft_diag_ngwf_ham                   :   182      215.54s   6.900%  ------ ||
|| projectors_gradient_batch            :    48      219.85s   7.038%  ------ ||
|| integrals_locpot_mat_els_batch       :   268      229.15s   7.335%  ------ ||
|| density_fftbox_interpolate_multiply  : 13440      260.96s   8.354%  ------ ||
|| projectors_grad_precond_batch        :    48      300.59s   9.622%  ------ ||
|| density_batch_interp_deposit         :   840      336.58s  10.774%  ------ ||
|| integrals_locpot_dbl_grid            :    67      337.93s  10.817%  ------ ||
|| edft_apply_smearing_operator         :   182      409.04s  13.094%  ------ ||
|| basis_add_function_to_box            : 17.30M     459.97s  14.724%  ------ ||
|| ngwf_gradient_build_batch            :    48      557.04s  17.831%  ------ ||
|| density_batch_row_sums               :   840      641.68s  20.541%  ------ ||
|| ngwf_gradient_batch                  :    48      734.84s  23.523%  ------ ||
|| ngwf_gradient_lnv                    :    12      759.51s  24.313%  ------ ||
|| density_on_dbl_grid                  :   210      990.07s  31.693%  ------ ||
|| hamiltonian_lhxc_calculate           :   205     1068.97s  34.219%  ------ ||
|| edft_calculate                       :    12     1794.85s  57.455%  ------ ||
|| ngwf_cg_optimise                     :     1     2986.29s  95.594%  ------ ||
|| total_time                           :     1     3123.93s 100.000%  ------ ||
================================================================================
Overhead of generating timer report: 
- 0 ms averaging over threads,
- 5 ms ensuring consistency across MPI ranks,
- 0 ms printing in order.

Job completed: 29-02-2020 10:38 (-0000)

