 +---------------------------------------------------------------+
 |                                                               |
 |        ####### #     # ####### ####### ####### ######         |
 |        #     # ##    # #          #    #       #     #        |
 |        #     # # #   # #          #    #       #     #        |
 |        #     # #  #  # #####      #    #####   ######         |
 |        #     # #   # # #          #    #       #              |
 |        #     # #    ## #          #    #       #              |
 |        ####### #     # #######    #    ####### #              |
 |                                                               |
 |        Linear-Scaling Ab Initio Total Energy Program          |
 |                                                               |
 |          Release for academic collaborators of ODG            |
 |                                             Version 5.3.2.12  |
 |                                                               |
 +---------------------------------------------------------------+
 |                                                               |
 |  Authors:                                                     |
 |  Jacek Dziedzic, Peter D. Haynes, Nicholas D. M. Hine,        |
 |  Arash. A. Mostofi, Mike C. Payne and Chris-Kriton Skylaris   |
 |                                                               |
 |  Contributors:                                                |
 |  J. Aarons, L. Andrinopoulos, P. W. Avraam, R. A. Bell,       |
 |  A. Bhandari, G. A. Bramley, R. J. Charlton, S. J. Clark,     |
 |  R. J. Clements, G. C. Constantinescu, F. Corsetti,           |
 |  N. Corsini, O. Dieguez, S. M. M. Dubois, K. K. B. Duff,      |
 |  J. M. Escartin, A. Greco, H. Helal, Q. O. Hill, L. P. Lee,   |
 |  J.-H. Li, E. B. Linscott, G. Moynihan, D. D. O`Regan,        |
 |  O. K. Okan, M. J. S. Phipps, C. J. Pickard,                  |
 |  J. C. A. Prentice, M. I. J. Probert, L. E. Ratcliff,         |
 |  M. Robinson, A. Ruiz Serrano, J. S. Spencer, E. W. Tait,     |
 |  G. Teobaldi, D. Turban, V. Vitale, K. A. Wilkinson,          |
 |  C. Weber, J. C. Womack, N. Yeung and T. J. Zuehlsdorff       |
 |                                                               |
 |                                   Copyright (c) 2004-2020     |
 |                                                               |
 |  Please cite:                                                 |
 |  "Introducing ONETEP: Linear-scaling density functional       |
 |   simulations on parallel computers".                         |
 |   C.-K. Skylaris, P. D. Haynes, A. A. Mostofi, M. C. Payne.   |
 |   J. Chem. Phys. 122 084119 (2005).                           |
 |                                                               |
 |          in all publications arising from your use of ONETEP. |
 |                                                               |
 +---------------------------------------------------------------+
 |                                                               |
 |   ONETEP is based on developments described in the following  |
 |   publications:                                               |
 |                                                               |
 |  "Nonorthogonal generalized Wannier function pseudopotential  |
 |   plane-wave method".                                         |
 |   C.-K. Skylaris, A. A. Mostofi, P. D. Haynes, O. Dieguez,    |
 |   M. C. Payne.                                                |
 |   Phys. Rev. B 66 035119 (2002).                              |
 |                                                               |
 |  "Preconditioned iterative minimization for linear-scaling    |
 |   electronic structure calculations".                         |
 |   A. A. Mostofi, P. D. Haynes, C.-K. Skylaris, M. C. Payne.   |
 |   J. Chem. Phys. 119(17), pp.8842-8848 (2003).                |
 |                                                               |
 |  "Total-energy calculations on a real space grid with         |
 |   localized functions and a plane-wave basis".                |
 |   A. A. Mostofi, C.-K. Skylaris, P. D. Haynes, M. C. Payne.   |
 |   Comput. Phys. Commun. 147, pp.788-802 (2002).               |
 |                                                               |
 |  "Accurate kinetic energy evaluation in electronic structure  |
 |   calculations with localized functions on real space grids"  |
 |   C.-K. Skylaris, A. A. Mostofi, P. D. Haynes, C. J. Pickard, |
 |   M. C. Payne.                                                |
 |   Comput. Phys. Commun. 140, pp.315-322 (2001).               |
 |                                                               |
 |  "Accurate ionic forces and geometry optimization in linear-  |
 |   scaling density-functional theory with local orbitals"      |
 |   N. D. M. Hine, M. Robinson, P. D. Haynes, C.-K. Skylaris,   |
 |   M. C. Payne, and A. A. Mostofi.                             |
 |   Phys. Rev. B 83 195102 (2011).                              |
 |                                                               |
 +---------------------------------------------------------------+

Job started: 29-02-2020 09:57 (-0000)
 
Reading parameters from file "3.8101304_GO_manual_4x64graphite.dat" ...

WARNING: "cutoff_energy" not specified, but "psinc_spacing" specified.
         Using the latter to set the KE cutoff energy to  732.32021eV,
         thus *overriding* the default.

... done

If your calculation crashes here, before "Checking processes and threads..."
is displayed, then your stack size is insufficient.
If so, use "ulimit -s unlimited" at runtime.
You can disable this check with "check_stack_size F".

Checking processes and threads...
   Determining the default number of threads...
      No default threads set at compilation time: defaulting to 1.
      OpenMP library call suggests 4 threads.
      Hybrid MPI-OpenMP compilation detected.
      Number of MPI processes > 1.
      OMP_NUM_THREADS environment variable present and
      its value matches the one obtained from the OpenMP library call.
      Using this value as default.
      Default threads: 4
      Default applies to threads_max and threads_num_fftboxes.
      Settings in the input file override this default.
   ... done

   Running with 40 MPI processes.
   There are 10 MPI processes running on the same node as the root process.
   Each MPI process is using: 
               1 threads for simulation cell FFTs.
               1 threads for parallel FFT box operations.
               4 threads for loops over batched FFT box operations.
               4 threads in other parallel regions.
... done

Basic input checks...
Resetting ngwf_cg_rotate to TRUE for EDFT calculations
... done

Reading geometry and species blocks from file "3.8101304_GO_manual_4x64graphite.dat" ...
    
  PSINC grid spacing along a1 set to   0.511215680000a0 from input file.
  PSINC grid spacing along a2 set to   0.531284090000a0 from input file.
  PSINC grid spacing along a3 set to   0.507050540000a0 from input file.
  Number of PPD points along a3 set to 1.  This is 
  the default value, it may have been provided also in the input file.
... done
 Writing xyz coordinates to file "3.8101304_GO_manual_4x64graphite.xyz" ... done


--------------------------------------------------------------------------------
---------------------------------- INPUT FILE ----------------------------------
--------------------------------------------------------------------------------

task : singlepoint                                                              
do_properties : true                                                            
dx_format T                                                                     
edft T                                                                          
output_detail VERBOSE                                                           
write_xyz T                                                                     
xc_functional OPTPBE                                                            
PSINC_SPACING 0.51121568 0.53128409 0.50705054                                  
paw T                                                                           
pdos_max_l = 2                                                                  
dos_smear  0.1 eV                                                               
popn_calculate T                                                                
PDOS_PSEUDOATOMIC T                                                             
PDOS_REDUCE_SWS F                                                               
PDOS_CONSTRUCT_BASIS F                                                          
PDOS_LOWDIN T                                                                   
PDOS_ORTH_ATOM_BLOCKS F                                                         
PDOS_LCAO_OPTIMIZE F                                                            
pdos_optados_output T                                                           
homo_plot 0                                                                     
lumo_plot 0                                                                     
homo_dens_plot -1                                                               
lumo_dens_plot -1                                                               
%BLOCK SPECIES                                                                  
C C 6 4 9.0                                                                     
%ENDBLOCK SPECIES                                                               
%BLOCK SPECIES_POT                                                              
C "~/pp/paw/c_pbe_abinit.paw"                                                   
%ENDBLOCK SPECIES_POT                                                           
%BLOCK SPECIES_ATOMIC_SET                                                       
C "SOLVE conf=2s2 2p2"                                                          
%ENDBLOCK SPECIES_ATOMIC_SET                                                    
%BLOCK LATTICE_CART                                                             
32.21  0.00  0.00                                                               
0.00 18.59  0.00                                                                
0.00  0.00 72.00                                                                
%ENDBLOCK LATTICE_CART                                                          
%BLOCK POSITIONS_ABS                                                            
C  0.00  0.00  3.60                                                             
C  0.00  0.00 18.00                                                             
C  0.00  0.00 32.40                                                             
C  0.00  0.00 46.80                                                             
C  0.00  0.00 61.20                                                             
C  0.00  4.65  3.60                                                             
C  0.00  4.65 18.00                                                             
C  0.00  4.65 32.40                                                             
C  0.00  4.65 46.80                                                             
C  0.00  4.65 61.20                                                             
C  4.03  2.32  3.60                                                             
C  4.03  2.32 18.00                                                             
C  4.03  2.32 32.40                                                             
C  4.03  2.32 46.80                                                             
C  4.03  2.32 61.20                                                             
C  8.05  0.00  3.60                                                             
C  8.05  0.00 18.00                                                             
C  8.05  0.00 32.40                                                             
C  8.05  0.00 46.80                                                             
C  8.05  0.00 61.20                                                             
C  0.00  9.30  3.60                                                             
C  0.00  9.30 18.00                                                             
C  0.00  9.30 32.40                                                             
C  0.00  9.30 46.80                                                             
C  0.00  9.30 61.20                                                             
C  4.03  6.97  3.60                                                             
C  4.03  6.97 18.00                                                             
C  4.03  6.97 32.40                                                             
C  4.03  6.97 46.80                                                             
C  4.03  6.97 61.20                                                             
C  8.05  4.65  3.60                                                             
C  8.05  4.65 18.00                                                             
C  8.05  4.65 32.40                                                             
C  8.05  4.65 46.80                                                             
C  8.05  4.65 61.20                                                             
C 12.08  2.32  3.60                                                             
C 12.08  2.32 18.00                                                             
C 12.08  2.32 32.40                                                             
C 12.08  2.32 46.80                                                             
C 12.08  2.32 61.20                                                             
C 16.10  0.00  3.60                                                             
C 16.10  0.00 18.00                                                             
C 16.10  0.00 32.40                                                             
C 16.10  0.00 46.80                                                             
C 16.10  0.00 61.20                                                             
C  0.00 13.95  3.60                                                             
C  0.00 13.95 18.00                                                             
C  0.00 13.95 32.40                                                             
C  0.00 13.95 46.80                                                             
C  0.00 13.95 61.20                                                             
C  4.03 11.62  3.60                                                             
C  4.03 11.62 18.00                                                             
C  4.03 11.62 32.40                                                             
C  4.03 11.62 46.80                                                             
C  4.03 11.62 61.20                                                             
C  8.05  9.30  3.60                                                             
C  8.05  9.30 18.00                                                             
C  8.05  9.30 32.40                                                             
C  8.05  9.30 46.80                                                             
C  8.05  9.30 61.20                                                             
C 12.08  6.97  3.60                                                             
C 12.08  6.97 18.00                                                             
C 12.08  6.97 32.40                                                             
C 12.08  6.97 46.80                                                             
C 12.08  6.97 61.20                                                             
C 16.10  4.65  3.60                                                             
C 16.10  4.65 18.00                                                             
C 16.10  4.65 32.40                                                             
C 16.10  4.65 46.80                                                             
C 16.10  4.65 61.20                                                             
C 20.13  2.32  3.60                                                             
C 20.13  2.32 18.00                                                             
C 20.13  2.32 32.40                                                             
C 20.13  2.32 46.80                                                             
C 20.13  2.32 61.20                                                             
C 24.16  0.00  3.60                                                             
C 24.16  0.00 18.00                                                             
C 24.16  0.00 32.40                                                             
C 24.16  0.00 46.80                                                             
C 24.16  0.00 61.20                                                             
C  4.03 16.27  3.60                                                             
C  4.03 16.27 18.00                                                             
C  4.03 16.27 32.40                                                             
C  4.03 16.27 46.80                                                             
C  4.03 16.27 61.20                                                             
C  8.05 13.95  3.60                                                             
C  8.05 13.95 18.00                                                             
C  8.05 13.95 32.40                                                             
C  8.05 13.95 46.80                                                             
C  8.05 13.95 61.20                                                             
C 12.08 11.62  3.60                                                             
C 12.08 11.62 18.00                                                             
C 12.08 11.62 32.40                                                             
C 12.08 11.62 46.80                                                             
C 12.08 11.62 61.20                                                             
C 16.10  9.30  3.60                                                             
C 16.10  9.30 18.00                                                             
C 16.10  9.30 32.40                                                             
C 16.10  9.30 46.80                                                             
C 16.10  9.30 61.20                                                             
C 20.13  6.97  3.60                                                             
C 20.13  6.97 18.00                                                             
C 20.13  6.97 32.40                                                             
C 20.13  6.97 46.80                                                             
C 20.13  6.97 61.20                                                             
C 24.16  4.65  3.60                                                             
C 24.16  4.65 18.00                                                             
C 24.16  4.65 32.40                                                             
C 24.16  4.65 46.80                                                             
C 24.16  4.65 61.20                                                             
C 28.18  2.32  3.60                                                             
C 28.18  2.32 18.00                                                             
C 28.18  2.32 32.40                                                             
C 28.18  2.32 46.80                                                             
C 28.18  2.32 61.20                                                             
C 12.08 16.27  3.60                                                             
C 12.08 16.27 18.00                                                             
C 12.08 16.27 32.40                                                             
C 12.08 16.27 46.80                                                             
C 12.08 16.27 61.20                                                             
C 16.10 13.95  3.60                                                             
C 16.10 13.95 18.00                                                             
C 16.10 13.95 32.40                                                             
C 16.10 13.95 46.80                                                             
C 16.10 13.95 61.20                                                             
C 20.13 11.62  3.60                                                             
C 20.13 11.62 18.00                                                             
C 20.13 11.62 32.40                                                             
C 20.13 11.62 46.80                                                             
C 20.13 11.62 61.20                                                             
C 24.16  9.30  3.60                                                             
C 24.16  9.30 18.00                                                             
C 24.16  9.30 32.40                                                             
C 24.16  9.30 46.80                                                             
C 24.16  9.30 61.20                                                             
C 28.18  6.97  3.60                                                             
C 28.18  6.97 18.00                                                             
C 28.18  6.97 32.40                                                             
C 28.18  6.97 46.80                                                             
C 28.18  6.97 61.20                                                             
C 20.13 16.27  3.60                                                             
C 20.13 16.27 18.00                                                             
C 20.13 16.27 32.40                                                             
C 20.13 16.27 46.80                                                             
C 20.13 16.27 61.20                                                             
C 24.16 13.95  3.60                                                             
C 24.16 13.95 18.00                                                             
C 24.16 13.95 32.40                                                             
C 24.16 13.95 46.80                                                             
C 24.16 13.95 61.20                                                             
C 28.18 11.62  3.60                                                             
C 28.18 11.62 18.00                                                             
C 28.18 11.62 32.40                                                             
C 28.18 11.62 46.80                                                             
C 28.18 11.62 61.20                                                             
C 28.18 16.27  3.60                                                             
C 28.18 16.27 18.00                                                             
C 28.18 16.27 32.40                                                             
C 28.18 16.27 46.80                                                             
C 28.18 16.27 61.20                                                             
C  0.00  0.00 10.80                                                             
C  0.00  0.00 25.20                                                             
C  0.00  0.00 39.60                                                             
C  0.00  0.00 54.00                                                             
C  0.00  0.00 68.40                                                             
C  0.00  4.65 10.80                                                             
C  0.00  4.65 25.20                                                             
C  0.00  4.65 39.60                                                             
C  0.00  4.65 54.00                                                             
C  0.00  4.65 68.40                                                             
C  4.03  2.32 10.80                                                             
C  4.03  2.32 25.20                                                             
C  4.03  2.32 39.60                                                             
C  4.03  2.32 54.00                                                             
C  4.03  2.32 68.40                                                             
C  8.05  0.00 10.80                                                             
C  8.05  0.00 25.20                                                             
C  8.05  0.00 39.60                                                             
C  8.05  0.00 54.00                                                             
C  8.05  0.00 68.40                                                             
C  0.00  9.30 10.80                                                             
C  0.00  9.30 25.20                                                             
C  0.00  9.30 39.60                                                             
C  0.00  9.30 54.00                                                             
C  0.00  9.30 68.40                                                             
C  4.03  6.97 10.80                                                             
C  4.03  6.97 25.20                                                             
C  4.03  6.97 39.60                                                             
C  4.03  6.97 54.00                                                             
C  4.03  6.97 68.40                                                             
C  8.05  4.65 10.80                                                             
C  8.05  4.65 25.20                                                             
C  8.05  4.65 39.60                                                             
C  8.05  4.65 54.00                                                             
C  8.05  4.65 68.40                                                             
C 12.08  2.32 10.80                                                             
C 12.08  2.32 25.20                                                             
C 12.08  2.32 39.60                                                             
C 12.08  2.32 54.00                                                             
C 12.08  2.32 68.40                                                             
C 16.10  0.00 10.80                                                             
C 16.10  0.00 25.20                                                             
C 16.10  0.00 39.60                                                             
C 16.10  0.00 54.00                                                             
C 16.10  0.00 68.40                                                             
C  0.00 13.95 10.80                                                             
C  0.00 13.95 25.20                                                             
C  0.00 13.95 39.60                                                             
C  0.00 13.95 54.00                                                             
C  0.00 13.95 68.40                                                             
C  4.03 11.62 10.80                                                             
C  4.03 11.62 25.20                                                             
C  4.03 11.62 39.60                                                             
C  4.03 11.62 54.00                                                             
C  4.03 11.62 68.40                                                             
C  8.05  9.30 10.80                                                             
C  8.05  9.30 25.20                                                             
C  8.05  9.30 39.60                                                             
C  8.05  9.30 54.00                                                             
C  8.05  9.30 68.40                                                             
C 12.08  6.97 10.80                                                             
C 12.08  6.97 25.20                                                             
C 12.08  6.97 39.60                                                             
C 12.08  6.97 54.00                                                             
C 12.08  6.97 68.40                                                             
C 16.10  4.65 10.80                                                             
C 16.10  4.65 25.20                                                             
C 16.10  4.65 39.60                                                             
C 16.10  4.65 54.00                                                             
C 16.10  4.65 68.40                                                             
C 20.13  2.32 10.80                                                             
C 20.13  2.32 25.20                                                             
C 20.13  2.32 39.60                                                             
C 20.13  2.32 54.00                                                             
C 20.13  2.32 68.40                                                             
C 24.16  0.00 10.80                                                             
C 24.16  0.00 25.20                                                             
C 24.16  0.00 39.60                                                             
C 24.16  0.00 54.00                                                             
C 24.16  0.00 68.40                                                             
C  4.03 16.27 10.80                                                             
C  4.03 16.27 25.20                                                             
C  4.03 16.27 39.60                                                             
C  4.03 16.27 54.00                                                             
C  4.03 16.27 68.40                                                             
C  8.05 13.95 10.80                                                             
C  8.05 13.95 25.20                                                             
C  8.05 13.95 39.60                                                             
C  8.05 13.95 54.00                                                             
C  8.05 13.95 68.40                                                             
C 12.08 11.62 10.80                                                             
C 12.08 11.62 25.20                                                             
C 12.08 11.62 39.60                                                             
C 12.08 11.62 54.00                                                             
C 12.08 11.62 68.40                                                             
C 16.10  9.30 10.80                                                             
C 16.10  9.30 25.20                                                             
C 16.10  9.30 39.60                                                             
C 16.10  9.30 54.00                                                             
C 16.10  9.30 68.40                                                             
C 20.13  6.97 10.80                                                             
C 20.13  6.97 25.20                                                             
C 20.13  6.97 39.60                                                             
C 20.13  6.97 54.00                                                             
C 20.13  6.97 68.40                                                             
C 24.16  4.65 10.80                                                             
C 24.16  4.65 25.20                                                             
C 24.16  4.65 39.60                                                             
C 24.16  4.65 54.00                                                             
C 24.16  4.65 68.40                                                             
C 28.18  2.32 10.80                                                             
C 28.18  2.32 25.20                                                             
C 28.18  2.32 39.60                                                             
C 28.18  2.32 54.00                                                             
C 28.18  2.32 68.40                                                             
C 12.08 16.27 10.80                                                             
C 12.08 16.27 25.20                                                             
C 12.08 16.27 39.60                                                             
C 12.08 16.27 54.00                                                             
C 12.08 16.27 68.40                                                             
C 16.10 13.95 10.80                                                             
C 16.10 13.95 25.20                                                             
C 16.10 13.95 39.60                                                             
C 16.10 13.95 54.00                                                             
C 16.10 13.95 68.40                                                             
C 20.13 11.62 10.80                                                             
C 20.13 11.62 25.20                                                             
C 20.13 11.62 39.60                                                             
C 20.13 11.62 54.00                                                             
C 20.13 11.62 68.40                                                             
C 24.16  9.30 10.80                                                             
C 24.16  9.30 25.20                                                             
C 24.16  9.30 39.60                                                             
C 24.16  9.30 54.00                                                             
C 24.16  9.30 68.40                                                             
C 28.18  6.97 10.80                                                             
C 28.18  6.97 25.20                                                             
C 28.18  6.97 39.60                                                             
C 28.18  6.97 54.00                                                             
C 28.18  6.97 68.40                                                             
C 20.13 16.27 10.80                                                             
C 20.13 16.27 25.20                                                             
C 20.13 16.27 39.60                                                             
C 20.13 16.27 54.00                                                             
C 20.13 16.27 68.40                                                             
C 24.16 13.95 10.80                                                             
C 24.16 13.95 25.20                                                             
C 24.16 13.95 39.60                                                             
C 24.16 13.95 54.00                                                             
C 24.16 13.95 68.40                                                             
C 28.18 11.62 10.80                                                             
C 28.18 11.62 25.20                                                             
C 28.18 11.62 39.60                                                             
C 28.18 11.62 54.00                                                             
C 28.18 11.62 68.40                                                             
C 28.18 16.27 10.80                                                             
C 28.18 16.27 25.20                                                             
C 28.18 16.27 39.60                                                             
C 28.18 16.27 54.00                                                             
C 28.18 16.27 68.40                                                             
C  1.34  2.32  3.60                                                             
C  1.34  2.32 18.00                                                             
C  1.34  2.32 32.40                                                             
C  1.34  2.32 46.80                                                             
C  1.34  2.32 61.20                                                             
C  5.37  0.00  3.60                                                             
C  5.37  0.00 18.00                                                             
C  5.37  0.00 32.40                                                             
C  5.37  0.00 46.80                                                             
C  5.37  0.00 61.20                                                             
C  1.34  6.97  3.60                                                             
C  1.34  6.97 18.00                                                             
C  1.34  6.97 32.40                                                             
C  1.34  6.97 46.80                                                             
C  1.34  6.97 61.20                                                             
C  5.37  4.65  3.60                                                             
C  5.37  4.65 18.00                                                             
C  5.37  4.65 32.40                                                             
C  5.37  4.65 46.80                                                             
C  5.37  4.65 61.20                                                             
C  9.39  2.32  3.60                                                             
C  9.39  2.32 18.00                                                             
C  9.39  2.32 32.40                                                             
C  9.39  2.32 46.80                                                             
C  9.39  2.32 61.20                                                             
C 13.42  0.00  3.60                                                             
C 13.42  0.00 18.00                                                             
C 13.42  0.00 32.40                                                             
C 13.42  0.00 46.80                                                             
C 13.42  0.00 61.20                                                             
C  1.34 11.62  3.60                                                             
C  1.34 11.62 18.00                                                             
C  1.34 11.62 32.40                                                             
C  1.34 11.62 46.80                                                             
C  1.34 11.62 61.20                                                             
C  5.37  9.30  3.60                                                             
C  5.37  9.30 18.00                                                             
C  5.37  9.30 32.40                                                             
C  5.37  9.30 46.80                                                             
C  5.37  9.30 61.20                                                             
C  9.39  6.97  3.60                                                             
C  9.39  6.97 18.00                                                             
C  9.39  6.97 32.40                                                             
C  9.39  6.97 46.80                                                             
C  9.39  6.97 61.20                                                             
C 13.42  4.65  3.60                                                             
C 13.42  4.65 18.00                                                             
C 13.42  4.65 32.40                                                             
C 13.42  4.65 46.80                                                             
C 13.42  4.65 61.20                                                             
C 17.45  2.32  3.60                                                             
C 17.45  2.32 18.00                                                             
C 17.45  2.32 32.40                                                             
C 17.45  2.32 46.80                                                             
C 17.45  2.32 61.20                                                             
C 21.47  0.00  3.60                                                             
C 21.47  0.00 18.00                                                             
C 21.47  0.00 32.40                                                             
C 21.47  0.00 46.80                                                             
C 21.47  0.00 61.20                                                             
C  1.34 16.27  3.60                                                             
C  1.34 16.27 18.00                                                             
C  1.34 16.27 32.40                                                             
C  1.34 16.27 46.80                                                             
C  1.34 16.27 61.20                                                             
C  5.37 13.95  3.60                                                             
C  5.37 13.95 18.00                                                             
C  5.37 13.95 32.40                                                             
C  5.37 13.95 46.80                                                             
C  5.37 13.95 61.20                                                             
C  9.39 11.62  3.60                                                             
C  9.39 11.62 18.00                                                             
C  9.39 11.62 32.40                                                             
C  9.39 11.62 46.80                                                             
C  9.39 11.62 61.20                                                             
C 13.42  9.30  3.60                                                             
C 13.42  9.30 18.00                                                             
C 13.42  9.30 32.40                                                             
C 13.42  9.30 46.80                                                             
C 13.42  9.30 61.20                                                             
C 17.45  6.97  3.60                                                             
C 17.45  6.97 18.00                                                             
C 17.45  6.97 32.40                                                             
C 17.45  6.97 46.80                                                             
C 17.45  6.97 61.20                                                             
C 21.47  4.65  3.60                                                             
C 21.47  4.65 18.00                                                             
C 21.47  4.65 32.40                                                             
C 21.47  4.65 46.80                                                             
C 21.47  4.65 61.20                                                             
C 25.50  2.32  3.60                                                             
C 25.50  2.32 18.00                                                             
C 25.50  2.32 32.40                                                             
C 25.50  2.32 46.80                                                             
C 25.50  2.32 61.20                                                             
C 29.52  0.00  3.60                                                             
C 29.52  0.00 18.00                                                             
C 29.52  0.00 32.40                                                             
C 29.52  0.00 46.80                                                             
C 29.52  0.00 61.20                                                             
C  9.39 16.27  3.60                                                             
C  9.39 16.27 18.00                                                             
C  9.39 16.27 32.40                                                             
C  9.39 16.27 46.80                                                             
C  9.39 16.27 61.20                                                             
C 13.42 13.95  3.60                                                             
C 13.42 13.95 18.00                                                             
C 13.42 13.95 32.40                                                             
C 13.42 13.95 46.80                                                             
C 13.42 13.95 61.20                                                             
C 17.45 11.62  3.60                                                             
C 17.45 11.62 18.00                                                             
C 17.45 11.62 32.40                                                             
C 17.45 11.62 46.80                                                             
C 17.45 11.62 61.20                                                             
C 21.47  9.30  3.60                                                             
C 21.47  9.30 18.00                                                             
C 21.47  9.30 32.40                                                             
C 21.47  9.30 46.80                                                             
C 21.47  9.30 61.20                                                             
C 25.50  6.97  3.60                                                             
C 25.50  6.97 18.00                                                             
C 25.50  6.97 32.40                                                             
C 25.50  6.97 46.80                                                             
C 25.50  6.97 61.20                                                             
C 29.52  4.65  3.60                                                             
C 29.52  4.65 18.00                                                             
C 29.52  4.65 32.40                                                             
C 29.52  4.65 46.80                                                             
C 29.52  4.65 61.20                                                             
C 17.45 16.27  3.60                                                             
C 17.45 16.27 18.00                                                             
C 17.45 16.27 32.40                                                             
C 17.45 16.27 46.80                                                             
C 17.45 16.27 61.20                                                             
C 21.47 13.95  3.60                                                             
C 21.47 13.95 18.00                                                             
C 21.47 13.95 32.40                                                             
C 21.47 13.95 46.80                                                             
C 21.47 13.95 61.20                                                             
C 25.50 11.62  3.60                                                             
C 25.50 11.62 18.00                                                             
C 25.50 11.62 32.40                                                             
C 25.50 11.62 46.80                                                             
C 25.50 11.62 61.20                                                             
C 29.52  9.30  3.60                                                             
C 29.52  9.30 18.00                                                             
C 29.52  9.30 32.40                                                             
C 29.52  9.30 46.80                                                             
C 29.52  9.30 61.20                                                             
C 25.50 16.27  3.60                                                             
C 25.50 16.27 18.00                                                             
C 25.50 16.27 32.40                                                             
C 25.50 16.27 46.80                                                             
C 25.50 16.27 61.20                                                             
C 29.52 13.95  3.60                                                             
C 29.52 13.95 18.00                                                             
C 29.52 13.95 32.40                                                             
C 29.52 13.95 46.80                                                             
C 29.52 13.95 61.20                                                             
C  2.68  0.00 10.80                                                             
C  2.68  0.00 25.20                                                             
C  2.68  0.00 39.60                                                             
C  2.68  0.00 54.00                                                             
C  2.68  0.00 68.40                                                             
C  2.68  4.65 10.80                                                             
C  2.68  4.65 25.20                                                             
C  2.68  4.65 39.60                                                             
C  2.68  4.65 54.00                                                             
C  2.68  4.65 68.40                                                             
C  6.71  2.32 10.80                                                             
C  6.71  2.32 25.20                                                             
C  6.71  2.32 39.60                                                             
C  6.71  2.32 54.00                                                             
C  6.71  2.32 68.40                                                             
C 10.74  0.00 10.80                                                             
C 10.74  0.00 25.20                                                             
C 10.74  0.00 39.60                                                             
C 10.74  0.00 54.00                                                             
C 10.74  0.00 68.40                                                             
C  2.68  9.30 10.80                                                             
C  2.68  9.30 25.20                                                             
C  2.68  9.30 39.60                                                             
C  2.68  9.30 54.00                                                             
C  2.68  9.30 68.40                                                             
C  6.71  6.97 10.80                                                             
C  6.71  6.97 25.20                                                             
C  6.71  6.97 39.60                                                             
C  6.71  6.97 54.00                                                             
C  6.71  6.97 68.40                                                             
C 10.74  4.65 10.80                                                             
C 10.74  4.65 25.20                                                             
C 10.74  4.65 39.60                                                             
C 10.74  4.65 54.00                                                             
C 10.74  4.65 68.40                                                             
C 14.76  2.32 10.80                                                             
C 14.76  2.32 25.20                                                             
C 14.76  2.32 39.60                                                             
C 14.76  2.32 54.00                                                             
C 14.76  2.32 68.40                                                             
C 18.79  0.00 10.80                                                             
C 18.79  0.00 25.20                                                             
C 18.79  0.00 39.60                                                             
C 18.79  0.00 54.00                                                             
C 18.79  0.00 68.40                                                             
C  2.68 13.95 10.80                                                             
C  2.68 13.95 25.20                                                             
C  2.68 13.95 39.60                                                             
C  2.68 13.95 54.00                                                             
C  2.68 13.95 68.40                                                             
C  6.71 11.62 10.80                                                             
C  6.71 11.62 25.20                                                             
C  6.71 11.62 39.60                                                             
C  6.71 11.62 54.00                                                             
C  6.71 11.62 68.40                                                             
C 10.74  9.30 10.80                                                             
C 10.74  9.30 25.20                                                             
C 10.74  9.30 39.60                                                             
C 10.74  9.30 54.00                                                             
C 10.74  9.30 68.40                                                             
C 14.76  6.97 10.80                                                             
C 14.76  6.97 25.20                                                             
C 14.76  6.97 39.60                                                             
C 14.76  6.97 54.00                                                             
C 14.76  6.97 68.40                                                             
C 18.79  4.65 10.80                                                             
C 18.79  4.65 25.20                                                             
C 18.79  4.65 39.60                                                             
C 18.79  4.65 54.00                                                             
C 18.79  4.65 68.40                                                             
C 22.81  2.32 10.80                                                             
C 22.81  2.32 25.20                                                             
C 22.81  2.32 39.60                                                             
C 22.81  2.32 54.00                                                             
C 22.81  2.32 68.40                                                             
C 26.84  0.00 10.80                                                             
C 26.84  0.00 25.20                                                             
C 26.84  0.00 39.60                                                             
C 26.84  0.00 54.00                                                             
C 26.84  0.00 68.40                                                             
C  6.71 16.27 10.80                                                             
C  6.71 16.27 25.20                                                             
C  6.71 16.27 39.60                                                             
C  6.71 16.27 54.00                                                             
C  6.71 16.27 68.40                                                             
C 10.74 13.95 10.80                                                             
C 10.74 13.95 25.20                                                             
C 10.74 13.95 39.60                                                             
C 10.74 13.95 54.00                                                             
C 10.74 13.95 68.40                                                             
C 14.76 11.62 10.80                                                             
C 14.76 11.62 25.20                                                             
C 14.76 11.62 39.60                                                             
C 14.76 11.62 54.00                                                             
C 14.76 11.62 68.40                                                             
C 18.79  9.30 10.80                                                             
C 18.79  9.30 25.20                                                             
C 18.79  9.30 39.60                                                             
C 18.79  9.30 54.00                                                             
C 18.79  9.30 68.40                                                             
C 22.81  6.97 10.80                                                             
C 22.81  6.97 25.20                                                             
C 22.81  6.97 39.60                                                             
C 22.81  6.97 54.00                                                             
C 22.81  6.97 68.40                                                             
C 26.84  4.65 10.80                                                             
C 26.84  4.65 25.20                                                             
C 26.84  4.65 39.60                                                             
C 26.84  4.65 54.00                                                             
C 26.84  4.65 68.40                                                             
C 30.86  2.32 10.80                                                             
C 30.86  2.32 25.20                                                             
C 30.86  2.32 39.60                                                             
C 30.86  2.32 54.00                                                             
C 30.86  2.32 68.40                                                             
C 14.76 16.27 10.80                                                             
C 14.76 16.27 25.20                                                             
C 14.76 16.27 39.60                                                             
C 14.76 16.27 54.00                                                             
C 14.76 16.27 68.40                                                             
C 18.79 13.95 10.80                                                             
C 18.79 13.95 25.20                                                             
C 18.79 13.95 39.60                                                             
C 18.79 13.95 54.00                                                             
C 18.79 13.95 68.40                                                             
C 22.81 11.62 10.80                                                             
C 22.81 11.62 25.20                                                             
C 22.81 11.62 39.60                                                             
C 22.81 11.62 54.00                                                             
C 22.81 11.62 68.40                                                             
C 26.84  9.30 10.80                                                             
C 26.84  9.30 25.20                                                             
C 26.84  9.30 39.60                                                             
C 26.84  9.30 54.00                                                             
C 26.84  9.30 68.40                                                             
C 30.86  6.97 10.80                                                             
C 30.86  6.97 25.20                                                             
C 30.86  6.97 39.60                                                             
C 30.86  6.97 54.00                                                             
C 30.86  6.97 68.40                                                             
C 22.81 16.27 10.80                                                             
C 22.81 16.27 25.20                                                             
C 22.81 16.27 39.60                                                             
C 22.81 16.27 54.00                                                             
C 22.81 16.27 68.40                                                             
C 26.84 13.95 10.80                                                             
C 26.84 13.95 25.20                                                             
C 26.84 13.95 39.60                                                             
C 26.84 13.95 54.00                                                             
C 26.84 13.95 68.40                                                             
C 30.86 11.62 10.80                                                             
C 30.86 11.62 25.20                                                             
C 30.86 11.62 39.60                                                             
C 30.86 11.62 54.00                                                             
C 30.86 11.62 68.40                                                             
C 30.86 16.27 10.80                                                             
C 30.86 16.27 25.20                                                             
C 30.86 16.27 39.60                                                             
C 30.86 16.27 54.00                                                             
C 30.86 16.27 68.40                                                             
%ENDBLOCK POSITIONS_ABS                                                         

--------------------------------------------------------------------------------
-------------------------------- END INPUT FILE --------------------------------
--------------------------------------------------------------------------------


 
<<<<<<<<<<<<<<<<<<<<<<<<<<<<<<<<< Full system >>>>>>>>>>>>>>>>>>>>>>>>>>>>>>>>>>
<<<<<<<<<<<<<<<<<<<<<<<<<<< PAW Dataset information >>>>>>>>>>>>>>>>>>>>>>>>>>>
File: ~/pp/paw/c_pbe_abinit.paw; rc = 1.25 bohr; shape type =  3; rshape = 1.25 bohr;
  Atomic number:  6;  ionic charge:  4.000000
    Partial Wave 1: l = 0
    Partial Wave 2: l = 0
    Partial Wave 3: l = 1
    Partial Wave 4: l = 1
  Core charge supplied for Nonlinear Core Corrections
<<<<<<<<<<<<<<<<<<<<<<<<<<<<<<<<<<<<<<< >>>>>>>>>>>>>>>>>>>>>>>>>>>>>>>>>>>>>>>

-------------------------- Atom counting information ---------------------------
Symbol    Natoms    Nngwfs    Nprojs
  C        640      2560      5120
.......   ......    ......    ......
Totals:    640      2560      5120
--------------------------------------------------------------------------------

=============================== PSINC grid sizes ===============================
                      Simulation cell:   63 x  35 x 142
                              FFT-box:   63 x  35 x 117
                                  PPD:    7 x   5 x   1
Grid space d1=  0.511269841270a0 (KE cutoff=  29.06054Eh = 790.77748eV)
Grid space d2=  0.531142857143a0 (KE cutoff=  26.92659Eh = 732.70972eV)
Grid space d3=  0.507042253521a0 (KE cutoff=  29.54716Eh = 804.01905eV)
================================================================================
  
WARNING in cell_grid_distribute:
Average of less than one 23-slab per node, so workload cannot be
equally balanced between nodes.

********************* Fourier parallelisation information **********************
       Coarse grid (whole simulation cell) dimensions:     63    35   142
          Real-space ('12') slabs/node (min max mean):      3     4     3
         Recip-space ('23') slabs/node (min max mean):      0     1     0
********************************************************************************

********************* Fourier parallelisation information **********************
       Double grid (whole simulation cell) dimensions:    126    70   284
          Real-space ('12') slabs/node (min max mean):      7     8     7
         Recip-space ('23') slabs/node (min max mean):      1     2     1
********************************************************************************

Atom SCF Calculation for C  : Z (AE atom) =   6 : Z (PS atom) =   4
Config String: 2s2 2p2
Orbitals (num,occ):  2     2.00 2.00
Orbitals   (num,l):  2        0    1
Real-space Grid (nr,dr,rmax): 1293    0.0069659443    9.0000000000
Spherical Bessel Basis (nsws,lmax,cutoff):   37    2  161.4736382572
Confining potential (l,width,scale):  0    3.0000000000  100.0000000000
Confining potential (l,width,scale):  1    3.0000000000  100.0000000000
  1         -5.4795203654   -1.3252209296    4.5135257941   -1.6370402169
  2         -5.4480859746   -1.4027979239    4.4305951748   -1.6109819005
  3         -5.4553164790   -1.4212834043    4.4102618304   -1.6059039466
  4         -5.4627841133   -1.4247091338    4.4065122085   -1.6052907585
  5         -5.4662306655   -1.4266814823    4.4043715292   -1.6049352647
  6         -5.4679520247   -1.4277352742    4.4032348712   -1.6047493439
  7         -5.4688359568   -1.4282868030    4.4026432892   -1.6046541449
  8         -5.4692951245   -1.4285734530    4.4023374832   -1.6046056242
  9         -5.4695349887   -1.4287220785    4.4021797781   -1.6045809101
 10         -5.4696606791   -1.4287991022    4.4020984905   -1.6045683155
 11         -5.4697266650   -1.4288390363    4.4020565747   -1.6045618912
 12         -5.4697613504   -1.4288597596    4.4020349416   -1.6045586107
 13         -5.4697795998   -1.4288705262    4.4020237638   -1.6045569335
 14         -5.4697892089   -1.4288761271    4.4020179806   -1.6045560749
 15         -5.4697942720   -1.4288790448    4.4020149844   -1.6045556348
 16         -5.4697969415   -1.4288805668    4.4020134298   -1.6045554088
 17         -5.4697983498   -1.4288813619    4.4020126220   -1.6045552927
 18         -5.4697990933   -1.4288817779    4.4020122017   -1.6045552329
 19         -5.4697994860   -1.4288819957    4.4020119826   -1.6045552021
 20         -5.4697996936   -1.4288821100    4.4020118683   -1.6045551862
 21         -5.4697998034   -1.4288821701    4.4020118085   -1.6045551780
 22         -5.4697998614   -1.4288822017    4.4020117772   -1.6045551737
Atom SCF converged after  22 iterations to a total energy of     -5.46979986

Determining parallel strategy ...
... using space-filling curve
... NGWF load balancing: max     64;  min     64;  average     64
... Projector load balancing: max    128;  min    128;  average    128
... done
Calculating Ewald energy ...
              Ewald: real-space energy =    9487.229121
        Ewald: reciprocal-space energy =       0.442767
         Ewald: (sum_charge)**2 Energy =   10843.989123
         Ewald: (sum_charge**2) Energy =     857.292614
                          Ewald Energy =   -2213.609850
Basis initialisation ...... NGWF spheres initialised
... Projector spheres initialised
... NGWF tight boxes initialised
... Projector tight boxes initialised
... Tight-boxes gathered
... NGWF basis size (local,global):     692340  27908448
... PAW projector initialisation
... done

============================= Charge Augmentation ==============================
                           Aug box size:   11 x  11 x  11
================================================================================

========================== Sparse matrix information ===========================
                        Overlap matrix filling:  40.94%
                        Density kernel filling: 100.00%
              NGWF-Proj overlap matrix filling:  12.19%
                    Aug Overlap matrix filling:  47.03%
                    Hamiltonian matrix filling:  47.03%
                  NGWF diagonal matrix filling:   0.16%
                             KS matrix filling: 100.00% 
                           KSKS matrix filling: 100.00% 
================================================================================

Sparse matrix initialisation ... done
NGWF initialisation ...... done
============ Calculation of NGWF S^-1 using Hotelling algorithm ================ 
         Iteration  |  Frobenius norm and Maximum abs value    (of I-S*S_n^-1)   
               1       0.48939034E+02     0.97440075E+00
               2       0.47633968E+02     0.95068244E+00
               3       0.45706849E+02     0.90802711E+00
               4       0.43247528E+02     0.83741786E+00
               5       0.40325981E+02     0.73366814E+00
               6       0.36965411E+02     0.67312276E+00
               7       0.33512373E+02     0.62647674E+00
               8       0.30207354E+02     0.58679979E+00
               9       0.26590768E+02     0.54109189E+00
              10       0.21961520E+02     0.46812354E+00
              11       0.15955752E+02     0.35378467E+00
              12       0.91786560E+01     0.20740495E+00
              13       0.34982173E+01     0.76594291E-01
              14       0.61047110E+00     0.12126068E-01
              15       0.22417034E-01     0.37770558E-03
              16       0.40404128E-04     0.48701909E-06
              17       0.20147473E-09     0.14513946E-11
              18       0.70360009E-13     0.33306691E-14
================================================================================
Calculating core density ...
================================= Core Density =================================
               Core den box size:   21 x  21 x  21
================================================================================
 ... done
Up spin density kernel initialisation ...... done

Writing density kernel to file "3.8101304_GO_manual_4x64graphite.dkn" ... done

>>> Optimising kernel for current NGWFs:

--------------------------- Ensemble-DFT optimisation --------------------------
Running ScaLAPACK on   40 processor(s).

--------------------------------------------------------------------------------
  Iter                              Commutator    Free_energy(A=E-TS)     DeltaA
#    0                          0.000034769726   -3648.49532584301778  -3.65E+03

Step                       =       0.381966011250
Energy                     =   -3648.495300540495
Entropy (-TS)              =      -0.000025302419
Free energy (A=E-TS)       =   -3648.495325843018
Est. 0K Energy 0.5*(E+A)   =   -3648.495313191756
Residual Non-orthogonality =       0.000000000000
Residual N_electrons       =      -0.000000000103

Spin          Integrated_Ne            Fermi_level     Delta_Fermi_level
   1      2560.000000000675         0.152979255113              1.53E-01

                           Spin 1          
     Orb      H-eigenvalues     Occupancies
       1 |    -0.5702348537    1.0000000000 | 
                          ------
    1276 |     0.1174472495    0.9999865984 | 
    1277 |     0.1180632564    0.9999837207 | 
    1278 |     0.1180646128    0.9999837137 | 
    1279 |     0.1180767639    0.9999836511 | 
    1280 |     0.1186936590    0.9999801351 | 
                 - Gap at zero temperature -
    1281 |     0.1894370829    0.0000100044 | 
    1282 |     0.1894415898    0.0000099902 | 
    1283 |     0.1894489717    0.0000099669 | 
    1284 |     0.1895475106    0.0000096616 | 
    1285 |     0.1895639932    0.0000096114 | 
                          ------
    2560 |     0.9871727144    0.0000000000 | 

                       |  Abs_value |  Threshold | Converged
     Delta_Free_energy |   3.65E+03 |   1.00E-06 |        No
     Delta_Energy      |   3.65E+03 |   1.00E-04 |        No
     Delta_Entropy     |   2.53E-05 |   1.00E-04 |       Yes
     Commutator        |   3.48E-05 |   1.00E-05 |        No
     Delta_Fermi_level |   1.53E-01 |   1.00E-03 |        No

  Line search of the free energy minimum:
  Step_type        Step             Free_energy   Predicted_free_energy
.   Initial    0.000000    -3648.49532584301778
.    Trial1    0.381966    -3648.49664834911982
.    Trial2    0.618034    -3648.49691597172932
. Quadratic    0.650437    -3648.49692004526150    -3648.49691992788485

--------------------------------------------------------------------------------
  Iter                              Commutator    Free_energy(A=E-TS)     DeltaA
#    1                          0.000019298245   -3648.49692004526150  -1.59E-03

Step                       =       0.650437063912
Energy                     =   -3648.496894795600
Entropy (-TS)              =      -0.000025249625
Free energy (A=E-TS)       =   -3648.496920045262
Est. 0K Energy 0.5*(E+A)   =   -3648.496907420431
Residual Non-orthogonality =       0.000000000000
Residual N_electrons       =      -0.000000000036

Spin          Integrated_Ne            Fermi_level     Delta_Fermi_level
   1      2560.000000000241         0.151135752450             -1.84E-03

                           Spin 1          
     Orb      H-eigenvalues     Occupancies
       1 |    -0.5741483607    1.0000000000 | 
                          ------
    1276 |     0.1156666837    0.9999863294 | 
    1277 |     0.1161141896    0.9999842544 | 
    1278 |     0.1161281745    0.9999841847 | 
    1279 |     0.1162734080    0.9999834426 | 
    1280 |     0.1167355015    0.9999808414 | 
                 - Gap at zero temperature -
    1281 |     0.1875258151    0.0000102208 | 
    1282 |     0.1875287928    0.0000102112 | 
    1283 |     0.1875385291    0.0000101799 | 
    1284 |     0.1876417666    0.0000098534 | 
    1285 |     0.1876572894    0.0000098052 | 
                          ------
    2560 |     0.9839137361    0.0000000000 | 

                       |  Abs_value |  Threshold | Converged
     Delta_Free_energy |   1.59E-03 |   1.00E-06 |        No
     Delta_Energy      |   1.59E-03 |   1.00E-04 |        No
     Delta_Entropy     |   5.28E-08 |   1.00E-04 |       Yes
     Commutator        |   1.93E-05 |   1.00E-05 |        No
     Delta_Fermi_level |   1.84E-03 |   1.00E-03 |        No

  Line search of the free energy minimum:
  Step_type        Step             Free_energy   Predicted_free_energy
.   Initial    0.000000    -3648.49692004526150
.    Trial1    0.650437    -3648.49632281529694
.    Trial2    0.248445    -3648.49727071268944
. Quadratic    0.245999    -3648.49727075011242    -3648.49727074736529

--------------------------------------------------------------------------------
  Iter                              Commutator    Free_energy(A=E-TS)     DeltaA
#    2                          0.000009426253   -3648.49727075011242  -3.51E-04

Step                       =       0.245998738922
Energy                     =   -3648.497245514670
Entropy (-TS)              =      -0.000025235402
Free energy (A=E-TS)       =   -3648.497270750112
Est. 0K Energy 0.5*(E+A)   =   -3648.497258132391
Residual Non-orthogonality =       0.000000000000
Residual N_electrons       =      -0.000000000040

Spin          Integrated_Ne            Fermi_level     Delta_Fermi_level
   1      2560.000000000268         0.150895927252             -2.40E-04

                           Spin 1          
     Orb      H-eigenvalues     Occupancies
       1 |    -0.5746663726    1.0000000000 | 
                          ------
    1276 |     0.1153906235    0.9999864849 | 
    1277 |     0.1158952518    0.9999841502 | 
    1278 |     0.1159111936    0.9999840702 | 
    1279 |     0.1159948011    0.9999836441 | 
    1280 |     0.1165160534    0.9999807177 | 
                 - Gap at zero temperature -
    1281 |     0.1873113891    0.0000101392 | 
    1282 |     0.1873143718    0.0000101296 | 
    1283 |     0.1873257949    0.0000100932 | 
    1284 |     0.1874307317    0.0000097642 | 
    1285 |     0.1874461845    0.0000097167 | 
                          ------
    2560 |     0.9834781031    0.0000000000 | 

                       |  Abs_value |  Threshold | Converged
     Delta_Free_energy |   3.51E-04 |   1.00E-06 |        No
     Delta_Energy      |   3.51E-04 |   1.00E-04 |        No
     Delta_Entropy     |   1.42E-08 |   1.00E-04 |       Yes
     Commutator        |   9.43E-06 |   1.00E-05 |       Yes
     Delta_Fermi_level |   2.40E-04 |   1.00E-03 |       Yes

  Line search of the free energy minimum:
  Step_type        Step             Free_energy   Predicted_free_energy
.   Initial    0.000000    -3648.49727075011242
.    Trial1    0.245999    -3648.49734487050409
.    Trial2    0.534002    -3648.49735716375426
. Quadratic    0.434068    -3648.49736199465360    -3648.49736200037569

--------------------------------------------------------------------------------
  Iter                              Commutator    Free_energy(A=E-TS)     DeltaA
#    3                          0.000006252831   -3648.49736199465360  -9.12E-05

Step                       =       0.434067954542
Energy                     =   -3648.497336782816
Entropy (-TS)              =      -0.000025212161
Free energy (A=E-TS)       =   -3648.497361994654
Est. 0K Energy 0.5*(E+A)   =   -3648.497349388735
Residual Non-orthogonality =       0.000000000000
Residual N_electrons       =       0.000000000323

Spin          Integrated_Ne            Fermi_level     Delta_Fermi_level
   1      2559.999999997852         0.150574390545             -3.22E-04

                           Spin 1          
     Orb      H-eigenvalues     Occupancies
       1 |    -0.5753457699    1.0000000000 | 
                          ------
    1276 |     0.1150462532    0.9999865820 | 
    1277 |     0.1155791072    0.9999841232 | 
    1278 |     0.1155975717    0.9999840304 | 
    1279 |     0.1156473677    0.9999837773 | 
    1280 |     0.1161994123    0.9999806879 | 
                 - Gap at zero temperature -
    1281 |     0.1870041793    0.0000100934 | 
    1282 |     0.1870073925    0.0000100832 | 
    1283 |     0.1870208841    0.0000100403 | 
    1284 |     0.1871270682    0.0000097092 | 
    1285 |     0.1871424291    0.0000096623 | 
                          ------
    2560 |     0.9829215384    0.0000000000 | 

                       |  Abs_value |  Threshold | Converged
     Delta_Free_energy |   9.12E-05 |   1.00E-06 |        No
     Delta_Energy      |   9.13E-05 |   1.00E-04 |       Yes
     Delta_Entropy     |   2.32E-08 |   1.00E-04 |       Yes
     Commutator        |   6.25E-06 |   1.00E-05 |       Yes
     Delta_Fermi_level |   3.22E-04 |   1.00E-03 |       Yes

  Line search of the free energy minimum:
  Step_type        Step             Free_energy   Predicted_free_energy
.   Initial    0.000000    -3648.49736199465360
.    Trial1    0.434068    -3648.49738143069499
.    Trial2    0.650235    -3648.49731908567128
. Quadratic    0.260726    -3648.49739683438975    -3648.49739682738755

--------------------------------------------------------------------------------
  Iter                              Commutator    Free_energy(A=E-TS)     DeltaA
#    4                          0.000003820644   -3648.49739683438975  -3.48E-05

Step                       =       0.260725858681
Energy                     =   -3648.497371631399
[...]
 C   160 -- C   385       -0.10      5.37000
 C   159 -- C   384       -0.10      5.37000
 C   158 -- C   383       -0.10      5.37000
 C   157 -- C   382       -0.10      5.37000
 C   156 -- C   381       -0.10      5.37000
 C   155 -- C   355       -0.10      5.37000
 C   154 -- C   354       -0.10      5.37000
 C   153 -- C   353       -0.10      5.37000
 C   152 -- C   352       -0.10      5.37000
 C   151 -- C   351       -0.10      5.37000
 C   140 -- C   335       -0.10      5.37000
 C   139 -- C   334       -0.10      5.37000
 C   138 -- C   333       -0.10      5.37000
 C   137 -- C   332       -0.10      5.37000
 C   136 -- C   331       -0.10      5.37000
 C   115 -- C   325       -0.10      5.37000
 C   114 -- C   324       -0.10      5.37000
 C   113 -- C   323       -0.10      5.37000
 C   112 -- C   322       -0.10      5.37000
 C   111 -- C   321       -0.10      5.37000
 C   285 -- C   580       -0.10      5.37202
 C   284 -- C   579       -0.10      5.37202
 C   283 -- C   578       -0.10      5.37202
 C   282 -- C   577       -0.10      5.37202
 C   281 -- C   576       -0.10      5.37202
 C   260 -- C   605       -0.10      5.37202
 C   259 -- C   604       -0.10      5.37202
 C   258 -- C   603       -0.10      5.37202
 C   257 -- C   602       -0.10      5.37202
 C   256 -- C   601       -0.10      5.37202
 C   219 -- C   569       -0.10      5.37202
 C   218 -- C   568       -0.10      5.37202
 C   217 -- C   567       -0.10      5.37202
 C   216 -- C   566       -0.10      5.37202
 C   205 -- C   550       -0.10      5.37202
 C   204 -- C   549       -0.10      5.37202
 C   203 -- C   548       -0.10      5.37202
 C   202 -- C   547       -0.10      5.37202
 C   201 -- C   546       -0.10      5.37202
 C   150 -- C   440       -0.10      5.37202
 C   149 -- C   439       -0.10      5.37202
 C   148 -- C   438       -0.10      5.37202
 C   147 -- C   437       -0.10      5.37202
 C   146 -- C   436       -0.10      5.37202
 C   135 -- C   460       -0.10      5.37202
 C   134 -- C   459       -0.10      5.37202
 C   133 -- C   458       -0.10      5.37202
 C   132 -- C   457       -0.10      5.37202
 C   131 -- C   456       -0.10      5.37202
 C   260 -- C   550       -0.10      5.37202
 C   259 -- C   549       -0.10      5.37202
 C   258 -- C   548       -0.10      5.37202
 C   257 -- C   547       -0.10      5.37202
 C   256 -- C   546       -0.10      5.37202
 C   250 -- C   540       -0.10      5.37202
 C   249 -- C   539       -0.10      5.37202
 C   248 -- C   538       -0.10      5.37202
 C   247 -- C   537       -0.10      5.37202
 C   246 -- C   536       -0.10      5.37202
 C   230 -- C   580       -0.10      5.37202
 C   230 -- C   525       -0.10      5.37202
 C   229 -- C   579       -0.10      5.37202
 C   229 -- C   524       -0.10      5.37202
 C   228 -- C   578       -0.10      5.37202
 C   228 -- C   523       -0.10      5.37202
 C   227 -- C   577       -0.10      5.37202
 C   227 -- C   522       -0.10      5.37202
 C   226 -- C   576       -0.10      5.37202
 C   226 -- C   521       -0.10      5.37202
 C   220 -- C   570       -0.10      5.37202
 C    95 -- C   425       -0.10      5.37202
 C    94 -- C   424       -0.10      5.37202
 C    93 -- C   423       -0.10      5.37202
 C    92 -- C   422       -0.10      5.37202
 C    91 -- C   421       -0.10      5.37202
 C   120 -- C   395       -0.10      5.37202
 C   119 -- C   394       -0.10      5.37202
 C   118 -- C   393       -0.10      5.37202
 C   117 -- C   392       -0.10      5.37202
 C   116 -- C   391       -0.10      5.37202
 C   106 -- C   436       -0.10      5.37202
 C   220 -- C   515       -0.10      5.37202
 C   219 -- C   514       -0.10      5.37202
 C   106 -- C   376       -0.10      5.37202
 C   218 -- C   513       -0.10      5.37202
 C   217 -- C   512       -0.10      5.37202
 C   216 -- C   511       -0.10      5.37202
 C    95 -- C   365       -0.10      5.37202
 C    94 -- C   364       -0.10      5.37202
 C   195 -- C   540       -0.10      5.37202
 C   195 -- C   500       -0.10      5.37202
 C    93 -- C   363       -0.10      5.37202
 C   194 -- C   539       -0.10      5.37202
 C   194 -- C   499       -0.10      5.37202
 C   193 -- C   538       -0.10      5.37202
 C   193 -- C   498       -0.10      5.37202
 C    92 -- C   362       -0.10      5.37202
 C   192 -- C   537       -0.10      5.37202
 C   192 -- C   497       -0.10      5.37202
 C   191 -- C   536       -0.10      5.37202
 C   191 -- C   496       -0.10      5.37202
 C    91 -- C   361       -0.10      5.37202
 C    85 -- C   355       -0.10      5.37202
 C   180 -- C   515       -0.10      5.37202
 C    84 -- C   354       -0.10      5.37202
 C   179 -- C   514       -0.10      5.37202
 C    83 -- C   353       -0.10      5.37202
 C   178 -- C   513       -0.10      5.37202
 C   177 -- C   512       -0.10      5.37202
 C    82 -- C   352       -0.10      5.37202
 C   176 -- C   511       -0.10      5.37202
 C    81 -- C   351       -0.10      5.37202
 C    80 -- C   410       -0.10      5.37202
 C    79 -- C   409       -0.10      5.37202
 C    78 -- C   408       -0.10      5.37202
 C    77 -- C   407       -0.10      5.37202
 C    76 -- C   406       -0.10      5.37202
 C    65 -- C   395       -0.10      5.37202
 C    64 -- C   394       -0.10      5.37202
 C    63 -- C   393       -0.10      5.37202
 C   135 -- C   410       -0.10      5.37202
 C    62 -- C   392       -0.10      5.37202
 C   134 -- C   409       -0.10      5.37202
 C   133 -- C   408       -0.10      5.37202
 C    61 -- C   391       -0.10      5.37202
 C   132 -- C   407       -0.10      5.37202
 C   131 -- C   406       -0.10      5.37202
 C    55 -- C   385       -0.10      5.37202
 C    54 -- C   384       -0.10      5.37202
 C    53 -- C   383       -0.10      5.37202
 C    52 -- C   382       -0.10      5.37202
 C   110 -- C   440       -0.10      5.37202
 C    51 -- C   381       -0.10      5.37202
 C   110 -- C   380       -0.10      5.37202
 C   109 -- C   439       -0.10      5.37202
 C   109 -- C   379       -0.10      5.37202
 C   108 -- C   438       -0.10      5.37202
 C   108 -- C   378       -0.10      5.37202
 C   107 -- C   437       -0.10      5.37202
 C   107 -- C   377       -0.10      5.37202
 C    40 -- C   365       -0.10      5.37202
 C    39 -- C   364       -0.10      5.37202
 C    38 -- C   363       -0.10      5.37202
 C    37 -- C   362       -0.10      5.37202
 C    36 -- C   361       -0.10      5.37202
 C    65 -- C   345       -0.10      5.37202
 C    64 -- C   344       -0.10      5.37202
 C    30 -- C   355       -0.10      5.37202
 C    63 -- C   343       -0.10      5.37202
 C    62 -- C   342       -0.10      5.37202
 C    29 -- C   354       -0.10      5.37202
 C    61 -- C   341       -0.10      5.37202
 C    28 -- C   353       -0.10      5.37202
 C    27 -- C   352       -0.10      5.37202
 C    26 -- C   351       -0.10      5.37202
 C    55 -- C   335       -0.10      5.37202
 C    54 -- C   334       -0.10      5.37202
 C    53 -- C   333       -0.10      5.37202
 C    52 -- C   332       -0.10      5.37202
 C    51 -- C   331       -0.10      5.37202
 C    11 -- C   331       -0.10      5.37202
 C    15 -- C   335       -0.10      5.37202
 C    30 -- C   325       -0.10      5.37202
 C    14 -- C   334       -0.10      5.37202
 C    29 -- C   324       -0.10      5.37202
 C    28 -- C   323       -0.10      5.37202
 C    13 -- C   333       -0.10      5.37202
 C    27 -- C   322       -0.10      5.37202
 C    26 -- C   321       -0.10      5.37202
 C    12 -- C   332       -0.10      5.37202
 C    23 -- C   478       -0.10      5.37202
 C    49 -- C   469       -0.10      5.37202
 C    48 -- C   468       -0.10      5.37202
 C    47 -- C   467       -0.10      5.37202
 C    22 -- C   477       -0.10      5.37202
 C    46 -- C   466       -0.10      5.37202
 C    21 -- C   476       -0.10      5.37202
 C    25 -- C   480       -0.10      5.37202
 C    24 -- C   479       -0.10      5.37202
 C    50 -- C   470       -0.10      5.37202
 C    24 -- C   449       -0.10      5.37202
 C     6 -- C   416       -0.10      5.37202
 C    23 -- C   448       -0.10      5.37202
 C    22 -- C   447       -0.10      5.37202
 C    10 -- C   470       -0.10      5.37202
 C     5 -- C   450       -0.10      5.37202
 C    21 -- C   446       -0.10      5.37202
 C    10 -- C   420       -0.10      5.37202
 C     9 -- C   469       -0.10      5.37202
 C     9 -- C   419       -0.10      5.37202
 C     8 -- C   468       -0.10      5.37202
 C     4 -- C   449       -0.10      5.37202
 C     8 -- C   418       -0.10      5.37202
 C     2 -- C   447       -0.10      5.37202
 C     7 -- C   467       -0.10      5.37202
 C     7 -- C   417       -0.10      5.37202
 C     1 -- C   446       -0.10      5.37202
 C     6 -- C   466       -0.10      5.37202
 C    25 -- C   450       -0.10      5.37202
 C     3 -- C   448       -0.10      5.37202
 C   215 -- C   635       -0.10      5.38000
 C   214 -- C   634       -0.10      5.38000
 C   213 -- C   633       -0.10      5.38000
 C   212 -- C   632       -0.10      5.38000
 C   211 -- C   631       -0.10      5.38000
 C   190 -- C   620       -0.10      5.38000
 C   189 -- C   619       -0.10      5.38000
 C   188 -- C   618       -0.10      5.38000
 C   187 -- C   617       -0.10      5.38000
 C   186 -- C   616       -0.10      5.38000
 C   175 -- C   595       -0.10      5.38000
 C   174 -- C   594       -0.10      5.38000
 C   173 -- C   593       -0.10      5.38000
 C   172 -- C   592       -0.10      5.38000
 C   171 -- C   591       -0.10      5.38000
 C   245 -- C   640       -0.10      5.38000
 C   244 -- C   639       -0.10      5.38000
 C   243 -- C   638       -0.10      5.38000
 C   242 -- C   637       -0.10      5.38000
 C   241 -- C   636       -0.10      5.38000
==================================================


=================== Orbital energy and occupancy information ===================

      Total number of orbitals:    2560
        Occupancy sum (kernel):    1280.000000001
   Occupancy sum (eigenvalues):    1280.000000001
                 HOMO-LUMO gap:       0.000006919 Eh
                 Mid-gap level:       0.242882835 Eh

                        Orbital | Energy (Eh) | Occupancy
                            1    -0.511450659   1.0000000
                        .......   ...........   .........
                         1272     0.171715761   0.9999891
                         1273     0.172180697   0.9999873
                         1274     0.172187117   0.9999873
                         1275     0.174256884   0.9999756
                         1276     0.174263952   0.9999755
                         1277     0.174727627   0.9999717
                         1278     0.174734738   0.9999716
                         1279     0.175119272   0.9999679
                         1280     0.175588481   0.9999628
                         1281     0.242879376   0.0000157
                        ....... -- gap at 0K -- .........
                         1282     0.242886295   0.0000157
                         1283     0.243128638   0.0000145
                         1284     0.243132919   0.0000145
                         1285     0.243135562   0.0000145
                         1286     0.243138798   0.0000145
                         1287     0.243324364   0.0000137
                         1288     0.243391453   0.0000134
                         1289     0.243396908   0.0000134
                         1290     0.243503083   0.0000129
                         1291     0.243510281   0.0000128
                        .......   ...........   .........
                         2560     1.103467107   0.0000000

================================================================================

===================== Writing canonical molecular orbitals =====================
| Orbital  Energy (eV)  Norm     |
| HOMO      6.60908411  1.000000 | Writing "3.8101304_GO_manual_4x64graphite_HOMO.cube" ... done
Writing "3.8101304_GO_manual_4x64graphite_HOMO.dx" ... done
| LUMO      6.60927238  1.000000 | Writing "3.8101304_GO_manual_4x64graphite_LUMO.cube" ... done
Writing "3.8101304_GO_manual_4x64graphite_LUMO.dx" ... done
================================================================================
 
===================== Density of States (DOS) calculation ======================
Writing "3.8101304_GO_manual_4x64graphite_DOS.txt" ...  done
================================================================================
 
Writing bands to file "3.8101304_GO_manual_4x64graphite.val_bands" ... done
 
================ Projected Density of States (pDOS) calculation ================
 
Constructing AM resolved functions  ...... done
Writing NGWF plot files in formats: CUBE DX ...  done
 
Performing overlap integrals ...  done
 
Computing pDOS weights ...  done
 
All bands spilling parameter =   3.01 %
Occupancy-weighted spilling parameter =   0.95 %
 
 => Outputting data for OptaDOS <=
 
Writing pDOS weights to file "3.8101304_GO_manual_4x64graphite.val_pdos_bin" ... done
 
Writing band gradients to file "3.8101304_GO_manual_4x64graphite.val_dome_bin" ... done
 
Writing Castep output cell file to "3.8101304_GO_manual_4x64graphite-out.cell" ... done
 
 => Computing Gaussian smeared pDOS <= 
Writing "3.8101304_GO_manual_4x64graphite_PDOS.txt" ...  done
 
 => Computing Occupancy-weighted Gaussian smeared pDOS <= 
Writing "3.8101304_GO_manual_4x64graphite_occ_PDOS.txt" ...  done
  => Band centres: 
 S band centre of group 1:  -15.608316 eV
 P band centre of group 1:   -8.486644 eV
  Band centres done. <=
  => Integrated number of electrons in each AM band: 
 S num electrons of group 1:  575.423296
 P num electrons of group 1: 1960.281549
  Integrated number of electrons done. <=
================================================================================

------------------------------ TIMING INFORMATION ------------------------------
AVERAGE TIME:    3102.789s on     40 node(s)                                    
TOTAL TIME:      3102.791s on     40 node(s)                                    
================= AVERAGE TIMINGS FROM ALL NODES (CUMULATIVE) ==================
|| TAG                                    #calls    cpu time   %total  Gflops ||
|| work_imbalance                       :     1        0.00s   0.000%  ------ ||
|| paw_tcore_hartree_on_grid            :     1        0.01s   0.000%  ------ ||
|| paw_tcore_density                    :     1        0.01s   0.000%  ------ ||
|| paw_sphere_density_on_grid           :     1        0.02s   0.001%  ------ ||
|| sparse_set_to_garbage                :   135        0.02s   0.001%  ------ ||
|| paw_dij_hartree                      :   275        0.03s   0.001%  ------ ||
|| pseudo_make_structure_factor         :     1        0.06s   0.002%  ------ ||
|| basis_extract_function_from_box      :  1536        0.06s   0.002%  ------ ||
|| paw_species_calc_proj_prec_mat       :     1        0.12s   0.004%  ------ ||
|| paw_dataset_init                     :     1        0.15s   0.005%  ------ ||
|| density_init_guess_real              :     1        0.19s   0.006%  ------ ||
|| restart_kernel_write                 :    13        0.62s   0.020%  ------ ||
|| ngwfs_initialise_from_radial         :     2        0.66s   0.021%  ------ ||
|| sparse_init                          :     1        0.89s   0.029%  ------ ||
|| dense_normal_eigensolve              :     1        1.19s   0.038%  ------ ||
|| hartree_on_grid                      :   207        1.59s   0.051%  ------ ||
|| projectors_init_fftbox_recip         :   121        2.33s   0.075%  ------ ||
|| ewald_calculate_energy               :     1        3.20s   0.103%  ------ ||
|| fourier_apply_box_pair               :  2272        3.76s   0.121% 560.031 ||
|| basis_copy_function_to_box           : 19712        4.23s   0.136%  ------ ||
|| augmentation_screen_dij              :   212        4.62s   0.149%  ------ ||
|| sparse_embed_hotelling_invert_embed  :    23        6.58s   0.212%  ------ ||
|| sw_init                              :     1        6.73s   0.217%  ------ ||
|| ngwf_gradient_coeffs                 :    12        8.50s   0.274%  ------ ||
|| sparse_trace                         :  2488       11.17s   0.360%  ------ ||
|| cell_grid_extract_box_real           :  8332       13.73s   0.443%  ------ ||
|| cell_grid_deposit_box_real           : 26672       19.00s   0.612%  ------ ||
|| fourier_apply_cell_backward          :  6388       19.85s   0.640%  43.300 ||
|| fourier_apply_cell_forward           :  5975       20.48s   0.660%  39.247 ||
|| paw_dij_xc                           :   275       21.77s   0.702%  ------ ||
|| aug_nonlocal_mat                     :   263       30.03s   0.968%  ------ ||
|| augmentation_density_on_grid         :   207       35.48s   1.143%  ------ ||
|| density_fftbox_deposit_to_cell       : 13248       39.32s   1.267%  ------ ||
|| hamiltonian_energy_components        :     3       47.92s   1.544%  ------ ||
|| function_ops_brappd_ketppd           :    48       49.12s   1.583%  ------ ||
|| eigenstates_pdos                     :     1       49.24s   1.587%  ------ ||
|| eigenstates_calculate                :     1       53.20s   1.715%  ------ ||
|| projectors_func_ovlp_box             :    24       53.26s   1.716%  ------ ||
|| xc_energy_potential                  :   206       76.23s   2.457%  ------ ||
|| nlxc_vdw_energy                      :   412       77.49s   2.497%  ------ ||
|| integrals_kinetic                    :    23       77.83s   2.509%  ------ ||
|| properties_calculate                 :     1       95.30s   3.071%  ------ ||
|| dense_eigensolve                     :   180       97.13s   3.130%  ------ ||
|| sparse_product                       :  2531       97.99s   3.158%  ------ ||
|| potential_apply_to_ngwf_batch        :   260      103.86s   3.347%  ------ ||
|| restart_ngwfs_tightbox_output        :    11      125.84s   4.056%  ------ ||
|| basis_dot_function_with_box          : 6.090M     167.96s   5.413%  ------ ||
|| fourier_apply_box                    : 62192      192.95s   6.218% 978.221 ||
|| edft_diag_ngwf_ham                   :   179      207.60s   6.691%  ------ ||
|| projectors_gradient_batch            :    48      218.64s   7.047%  ------ ||
|| integrals_locpot_mat_els_batch       :   260      226.42s   7.297%  ------ ||
|| density_fftbox_interpolate_multiply  : 13248      256.89s   8.279%  ------ ||
|| projectors_grad_precond_batch        :    48      300.71s   9.692%  ------ ||
|| density_batch_interp_deposit         :   828      330.83s  10.662%  ------ ||
|| integrals_locpot_dbl_grid            :    65      331.34s  10.679%  ------ ||
|| edft_apply_smearing_operator         :   179      397.03s  12.796%  ------ ||
|| basis_add_function_to_box            : 17.10M     455.36s  14.676%  ------ ||
|| ngwf_gradient_build_batch            :    48      555.85s  17.915%  ------ ||
|| density_batch_row_sums               :   828      642.84s  20.718%  ------ ||
|| ngwf_gradient_batch                  :    48      737.82s  23.779%  ------ ||
|| ngwf_gradient_lnv                    :    12      763.65s  24.612%  ------ ||
|| density_on_dbl_grid                  :   207      984.79s  31.739%  ------ ||
|| hamiltonian_lhxc_calculate           :   202     1073.39s  34.594%  ------ ||
|| edft_calculate                       :    12     1779.39s  57.348%  ------ ||
|| ngwf_cg_optimise                     :     1     2982.29s  96.116%  ------ ||
|| total_time                           :     1     3102.79s 100.000%  ------ ||
================================================================================
Overhead of generating timer report: 
- 0 ms averaging over threads,
- 5 ms ensuring consistency across MPI ranks,
- 0 ms printing in order.

Job completed: 29-02-2020 10:49 (-0000)

