 +---------------------------------------------------------------+
 |                                                               |
 |        ####### #     # ####### ####### ####### ######         |
 |        #     # ##    # #          #    #       #     #        |
 |        #     # # #   # #          #    #       #     #        |
 |        #     # #  #  # #####      #    #####   ######         |
 |        #     # #   # # #          #    #       #              |
 |        #     # #    ## #          #    #       #              |
 |        ####### #     # #######    #    ####### #              |
 |                                                               |
 |        Linear-Scaling Ab Initio Total Energy Program          |
 |                                                               |
 |          Release for academic collaborators of ODG            |
 |                                             Version 5.3.2.12  |
 |                                                               |
 +---------------------------------------------------------------+
 |                                                               |
 |  Authors:                                                     |
 |  Jacek Dziedzic, Peter D. Haynes, Nicholas D. M. Hine,        |
 |  Arash. A. Mostofi, Mike C. Payne and Chris-Kriton Skylaris   |
 |                                                               |
 |  Contributors:                                                |
 |  J. Aarons, L. Andrinopoulos, P. W. Avraam, R. A. Bell,       |
 |  A. Bhandari, G. A. Bramley, R. J. Charlton, S. J. Clark,     |
 |  R. J. Clements, G. C. Constantinescu, F. Corsetti,           |
 |  N. Corsini, O. Dieguez, S. M. M. Dubois, K. K. B. Duff,      |
 |  J. M. Escartin, A. Greco, H. Helal, Q. O. Hill, L. P. Lee,   |
 |  J.-H. Li, E. B. Linscott, G. Moynihan, D. D. O`Regan,        |
 |  O. K. Okan, M. J. S. Phipps, C. J. Pickard,                  |
 |  J. C. A. Prentice, M. I. J. Probert, L. E. Ratcliff,         |
 |  M. Robinson, A. Ruiz Serrano, J. S. Spencer, E. W. Tait,     |
 |  G. Teobaldi, D. Turban, V. Vitale, K. A. Wilkinson,          |
 |  C. Weber, J. C. Womack, N. Yeung and T. J. Zuehlsdorff       |
 |                                                               |
 |                                   Copyright (c) 2004-2020     |
 |                                                               |
 |  Please cite:                                                 |
 |  "Introducing ONETEP: Linear-scaling density functional       |
 |   simulations on parallel computers".                         |
 |   C.-K. Skylaris, P. D. Haynes, A. A. Mostofi, M. C. Payne.   |
 |   J. Chem. Phys. 122 084119 (2005).                           |
 |                                                               |
 |          in all publications arising from your use of ONETEP. |
 |                                                               |
 +---------------------------------------------------------------+
 |                                                               |
 |   ONETEP is based on developments described in the following  |
 |   publications:                                               |
 |                                                               |
 |  "Nonorthogonal generalized Wannier function pseudopotential  |
 |   plane-wave method".                                         |
 |   C.-K. Skylaris, A. A. Mostofi, P. D. Haynes, O. Dieguez,    |
 |   M. C. Payne.                                                |
 |   Phys. Rev. B 66 035119 (2002).                              |
 |                                                               |
 |  "Preconditioned iterative minimization for linear-scaling    |
 |   electronic structure calculations".                         |
 |   A. A. Mostofi, P. D. Haynes, C.-K. Skylaris, M. C. Payne.   |
 |   J. Chem. Phys. 119(17), pp.8842-8848 (2003).                |
 |                                                               |
 |  "Total-energy calculations on a real space grid with         |
 |   localized functions and a plane-wave basis".                |
 |   A. A. Mostofi, C.-K. Skylaris, P. D. Haynes, M. C. Payne.   |
 |   Comput. Phys. Commun. 147, pp.788-802 (2002).               |
 |                                                               |
 |  "Accurate kinetic energy evaluation in electronic structure  |
 |   calculations with localized functions on real space grids"  |
 |   C.-K. Skylaris, A. A. Mostofi, P. D. Haynes, C. J. Pickard, |
 |   M. C. Payne.                                                |
 |   Comput. Phys. Commun. 140, pp.315-322 (2001).               |
 |                                                               |
 |  "Accurate ionic forces and geometry optimization in linear-  |
 |   scaling density-functional theory with local orbitals"      |
 |   N. D. M. Hine, M. Robinson, P. D. Haynes, C.-K. Skylaris,   |
 |   M. C. Payne, and A. A. Mostofi.                             |
 |   Phys. Rev. B 83 195102 (2011).                              |
 |                                                               |
 +---------------------------------------------------------------+

Job started: 29-02-2020 10:29 (-0000)
 
Reading parameters from file "3.8369616_GO_manual_4x64graphite.dat" ...

WARNING: "cutoff_energy" not specified, but "psinc_spacing" specified.
         Using the latter to set the KE cutoff energy to  732.32021eV,
         thus *overriding* the default.

... done

If your calculation crashes here, before "Checking processes and threads..."
is displayed, then your stack size is insufficient.
If so, use "ulimit -s unlimited" at runtime.
You can disable this check with "check_stack_size F".

Checking processes and threads...
   Determining the default number of threads...
      No default threads set at compilation time: defaulting to 1.
      OpenMP library call suggests 4 threads.
      Hybrid MPI-OpenMP compilation detected.
      Number of MPI processes > 1.
      OMP_NUM_THREADS environment variable present and
      its value matches the one obtained from the OpenMP library call.
      Using this value as default.
      Default threads: 4
      Default applies to threads_max and threads_num_fftboxes.
      Settings in the input file override this default.
   ... done

   Running with 40 MPI processes.
   There are 10 MPI processes running on the same node as the root process.
   Each MPI process is using: 
               1 threads for simulation cell FFTs.
               1 threads for parallel FFT box operations.
               4 threads for loops over batched FFT box operations.
               4 threads in other parallel regions.
... done

Basic input checks...
Resetting ngwf_cg_rotate to TRUE for EDFT calculations
... done

Reading geometry and species blocks from file "3.8369616_GO_manual_4x64graphite.dat" ...
    
  PSINC grid spacing along a1 set to   0.511215680000a0 from input file.
  PSINC grid spacing along a2 set to   0.531284090000a0 from input file.
  PSINC grid spacing along a3 set to   0.507050450000a0 from input file.
  Number of PPD points along a3 set to 1.  This is 
  the default value, it may have been provided also in the input file.
... done
 Writing xyz coordinates to file "3.8369616_GO_manual_4x64graphite.xyz" ... done


--------------------------------------------------------------------------------
---------------------------------- INPUT FILE ----------------------------------
--------------------------------------------------------------------------------

task : singlepoint                                                              
do_properties : true                                                            
dx_format T                                                                     
edft T                                                                          
output_detail VERBOSE                                                           
write_xyz T                                                                     
xc_functional OPTPBE                                                            
PSINC_SPACING 0.51121568 0.53128409 0.50705045                                  
paw T                                                                           
pdos_max_l = 2                                                                  
dos_smear  0.1 eV                                                               
popn_calculate T                                                                
PDOS_PSEUDOATOMIC T                                                             
PDOS_REDUCE_SWS F                                                               
PDOS_CONSTRUCT_BASIS F                                                          
PDOS_LOWDIN T                                                                   
PDOS_ORTH_ATOM_BLOCKS F                                                         
PDOS_LCAO_OPTIMIZE F                                                            
pdos_optados_output T                                                           
homo_plot 0                                                                     
lumo_plot 0                                                                     
homo_dens_plot -1                                                               
lumo_dens_plot -1                                                               
%BLOCK SPECIES                                                                  
C C 6 4 9.0                                                                     
%ENDBLOCK SPECIES                                                               
%BLOCK SPECIES_POT                                                              
C "~/pp/paw/c_pbe_abinit.paw"                                                   
%ENDBLOCK SPECIES_POT                                                           
%BLOCK SPECIES_ATOMIC_SET                                                       
C "SOLVE conf=2s2 2p2"                                                          
%ENDBLOCK SPECIES_ATOMIC_SET                                                    
%BLOCK LATTICE_CART                                                             
32.21  0.00  0.00                                                               
0.00 18.59  0.00                                                                
0.00  0.00 72.51                                                                
%ENDBLOCK LATTICE_CART                                                          
%BLOCK POSITIONS_ABS                                                            
C  0.00  0.00  3.63                                                             
C  0.00  0.00 18.13                                                             
C  0.00  0.00 32.63                                                             
C  0.00  0.00 47.13                                                             
C  0.00  0.00 61.63                                                             
C  0.00  4.65  3.63                                                             
C  0.00  4.65 18.13                                                             
C  0.00  4.65 32.63                                                             
C  0.00  4.65 47.13                                                             
C  0.00  4.65 61.63                                                             
C  4.03  2.32  3.63                                                             
C  4.03  2.32 18.13                                                             
C  4.03  2.32 32.63                                                             
C  4.03  2.32 47.13                                                             
C  4.03  2.32 61.63                                                             
C  8.05  0.00  3.63                                                             
C  8.05  0.00 18.13                                                             
C  8.05  0.00 32.63                                                             
C  8.05  0.00 47.13                                                             
C  8.05  0.00 61.63                                                             
C  0.00  9.30  3.63                                                             
C  0.00  9.30 18.13                                                             
C  0.00  9.30 32.63                                                             
C  0.00  9.30 47.13                                                             
C  0.00  9.30 61.63                                                             
C  4.03  6.97  3.63                                                             
C  4.03  6.97 18.13                                                             
C  4.03  6.97 32.63                                                             
C  4.03  6.97 47.13                                                             
C  4.03  6.97 61.63                                                             
C  8.05  4.65  3.63                                                             
C  8.05  4.65 18.13                                                             
C  8.05  4.65 32.63                                                             
C  8.05  4.65 47.13                                                             
C  8.05  4.65 61.63                                                             
C 12.08  2.32  3.63                                                             
C 12.08  2.32 18.13                                                             
C 12.08  2.32 32.63                                                             
C 12.08  2.32 47.13                                                             
C 12.08  2.32 61.63                                                             
C 16.10  0.00  3.63                                                             
C 16.10  0.00 18.13                                                             
C 16.10  0.00 32.63                                                             
C 16.10  0.00 47.13                                                             
C 16.10  0.00 61.63                                                             
C  0.00 13.95  3.63                                                             
C  0.00 13.95 18.13                                                             
C  0.00 13.95 32.63                                                             
C  0.00 13.95 47.13                                                             
C  0.00 13.95 61.63                                                             
C  4.03 11.62  3.63                                                             
C  4.03 11.62 18.13                                                             
C  4.03 11.62 32.63                                                             
C  4.03 11.62 47.13                                                             
C  4.03 11.62 61.63                                                             
C  8.05  9.30  3.63                                                             
C  8.05  9.30 18.13                                                             
C  8.05  9.30 32.63                                                             
C  8.05  9.30 47.13                                                             
C  8.05  9.30 61.63                                                             
C 12.08  6.97  3.63                                                             
C 12.08  6.97 18.13                                                             
C 12.08  6.97 32.63                                                             
C 12.08  6.97 47.13                                                             
C 12.08  6.97 61.63                                                             
C 16.10  4.65  3.63                                                             
C 16.10  4.65 18.13                                                             
C 16.10  4.65 32.63                                                             
C 16.10  4.65 47.13                                                             
C 16.10  4.65 61.63                                                             
C 20.13  2.32  3.63                                                             
C 20.13  2.32 18.13                                                             
C 20.13  2.32 32.63                                                             
C 20.13  2.32 47.13                                                             
C 20.13  2.32 61.63                                                             
C 24.16  0.00  3.63                                                             
C 24.16  0.00 18.13                                                             
C 24.16  0.00 32.63                                                             
C 24.16  0.00 47.13                                                             
C 24.16  0.00 61.63                                                             
C  4.03 16.27  3.63                                                             
C  4.03 16.27 18.13                                                             
C  4.03 16.27 32.63                                                             
C  4.03 16.27 47.13                                                             
C  4.03 16.27 61.63                                                             
C  8.05 13.95  3.63                                                             
C  8.05 13.95 18.13                                                             
C  8.05 13.95 32.63                                                             
C  8.05 13.95 47.13                                                             
C  8.05 13.95 61.63                                                             
C 12.08 11.62  3.63                                                             
C 12.08 11.62 18.13                                                             
C 12.08 11.62 32.63                                                             
C 12.08 11.62 47.13                                                             
C 12.08 11.62 61.63                                                             
C 16.10  9.30  3.63                                                             
C 16.10  9.30 18.13                                                             
C 16.10  9.30 32.63                                                             
C 16.10  9.30 47.13                                                             
C 16.10  9.30 61.63                                                             
C 20.13  6.97  3.63                                                             
C 20.13  6.97 18.13                                                             
C 20.13  6.97 32.63                                                             
C 20.13  6.97 47.13                                                             
C 20.13  6.97 61.63                                                             
C 24.16  4.65  3.63                                                             
C 24.16  4.65 18.13                                                             
C 24.16  4.65 32.63                                                             
C 24.16  4.65 47.13                                                             
C 24.16  4.65 61.63                                                             
C 28.18  2.32  3.63                                                             
C 28.18  2.32 18.13                                                             
C 28.18  2.32 32.63                                                             
C 28.18  2.32 47.13                                                             
C 28.18  2.32 61.63                                                             
C 12.08 16.27  3.63                                                             
C 12.08 16.27 18.13                                                             
C 12.08 16.27 32.63                                                             
C 12.08 16.27 47.13                                                             
C 12.08 16.27 61.63                                                             
C 16.10 13.95  3.63                                                             
C 16.10 13.95 18.13                                                             
C 16.10 13.95 32.63                                                             
C 16.10 13.95 47.13                                                             
C 16.10 13.95 61.63                                                             
C 20.13 11.62  3.63                                                             
C 20.13 11.62 18.13                                                             
C 20.13 11.62 32.63                                                             
C 20.13 11.62 47.13                                                             
C 20.13 11.62 61.63                                                             
C 24.16  9.30  3.63                                                             
C 24.16  9.30 18.13                                                             
C 24.16  9.30 32.63                                                             
C 24.16  9.30 47.13                                                             
C 24.16  9.30 61.63                                                             
C 28.18  6.97  3.63                                                             
C 28.18  6.97 18.13                                                             
C 28.18  6.97 32.63                                                             
C 28.18  6.97 47.13                                                             
C 28.18  6.97 61.63                                                             
C 20.13 16.27  3.63                                                             
C 20.13 16.27 18.13                                                             
C 20.13 16.27 32.63                                                             
C 20.13 16.27 47.13                                                             
C 20.13 16.27 61.63                                                             
C 24.16 13.95  3.63                                                             
C 24.16 13.95 18.13                                                             
C 24.16 13.95 32.63                                                             
C 24.16 13.95 47.13                                                             
C 24.16 13.95 61.63                                                             
C 28.18 11.62  3.63                                                             
C 28.18 11.62 18.13                                                             
C 28.18 11.62 32.63                                                             
C 28.18 11.62 47.13                                                             
C 28.18 11.62 61.63                                                             
C 28.18 16.27  3.63                                                             
C 28.18 16.27 18.13                                                             
C 28.18 16.27 32.63                                                             
C 28.18 16.27 47.13                                                             
C 28.18 16.27 61.63                                                             
C  0.00  0.00 10.88                                                             
C  0.00  0.00 25.38                                                             
C  0.00  0.00 39.88                                                             
C  0.00  0.00 54.38                                                             
C  0.00  0.00 68.88                                                             
C  0.00  4.65 10.88                                                             
C  0.00  4.65 25.38                                                             
C  0.00  4.65 39.88                                                             
C  0.00  4.65 54.38                                                             
C  0.00  4.65 68.88                                                             
C  4.03  2.32 10.88                                                             
C  4.03  2.32 25.38                                                             
C  4.03  2.32 39.88                                                             
C  4.03  2.32 54.38                                                             
C  4.03  2.32 68.88                                                             
C  8.05  0.00 10.88                                                             
C  8.05  0.00 25.38                                                             
C  8.05  0.00 39.88                                                             
C  8.05  0.00 54.38                                                             
C  8.05  0.00 68.88                                                             
C  0.00  9.30 10.88                                                             
C  0.00  9.30 25.38                                                             
C  0.00  9.30 39.88                                                             
C  0.00  9.30 54.38                                                             
C  0.00  9.30 68.88                                                             
C  4.03  6.97 10.88                                                             
C  4.03  6.97 25.38                                                             
C  4.03  6.97 39.88                                                             
C  4.03  6.97 54.38                                                             
C  4.03  6.97 68.88                                                             
C  8.05  4.65 10.88                                                             
C  8.05  4.65 25.38                                                             
C  8.05  4.65 39.88                                                             
C  8.05  4.65 54.38                                                             
C  8.05  4.65 68.88                                                             
C 12.08  2.32 10.88                                                             
C 12.08  2.32 25.38                                                             
C 12.08  2.32 39.88                                                             
C 12.08  2.32 54.38                                                             
C 12.08  2.32 68.88                                                             
C 16.10  0.00 10.88                                                             
C 16.10  0.00 25.38                                                             
C 16.10  0.00 39.88                                                             
C 16.10  0.00 54.38                                                             
C 16.10  0.00 68.88                                                             
C  0.00 13.95 10.88                                                             
C  0.00 13.95 25.38                                                             
C  0.00 13.95 39.88                                                             
C  0.00 13.95 54.38                                                             
C  0.00 13.95 68.88                                                             
C  4.03 11.62 10.88                                                             
C  4.03 11.62 25.38                                                             
C  4.03 11.62 39.88                                                             
C  4.03 11.62 54.38                                                             
C  4.03 11.62 68.88                                                             
C  8.05  9.30 10.88                                                             
C  8.05  9.30 25.38                                                             
C  8.05  9.30 39.88                                                             
C  8.05  9.30 54.38                                                             
C  8.05  9.30 68.88                                                             
C 12.08  6.97 10.88                                                             
C 12.08  6.97 25.38                                                             
C 12.08  6.97 39.88                                                             
C 12.08  6.97 54.38                                                             
C 12.08  6.97 68.88                                                             
C 16.10  4.65 10.88                                                             
C 16.10  4.65 25.38                                                             
C 16.10  4.65 39.88                                                             
C 16.10  4.65 54.38                                                             
C 16.10  4.65 68.88                                                             
C 20.13  2.32 10.88                                                             
C 20.13  2.32 25.38                                                             
C 20.13  2.32 39.88                                                             
C 20.13  2.32 54.38                                                             
C 20.13  2.32 68.88                                                             
C 24.16  0.00 10.88                                                             
C 24.16  0.00 25.38                                                             
C 24.16  0.00 39.88                                                             
C 24.16  0.00 54.38                                                             
C 24.16  0.00 68.88                                                             
C  4.03 16.27 10.88                                                             
C  4.03 16.27 25.38                                                             
C  4.03 16.27 39.88                                                             
C  4.03 16.27 54.38                                                             
C  4.03 16.27 68.88                                                             
C  8.05 13.95 10.88                                                             
C  8.05 13.95 25.38                                                             
C  8.05 13.95 39.88                                                             
C  8.05 13.95 54.38                                                             
C  8.05 13.95 68.88                                                             
C 12.08 11.62 10.88                                                             
C 12.08 11.62 25.38                                                             
C 12.08 11.62 39.88                                                             
C 12.08 11.62 54.38                                                             
C 12.08 11.62 68.88                                                             
C 16.10  9.30 10.88                                                             
C 16.10  9.30 25.38                                                             
C 16.10  9.30 39.88                                                             
C 16.10  9.30 54.38                                                             
C 16.10  9.30 68.88                                                             
C 20.13  6.97 10.88                                                             
C 20.13  6.97 25.38                                                             
C 20.13  6.97 39.88                                                             
C 20.13  6.97 54.38                                                             
C 20.13  6.97 68.88                                                             
C 24.16  4.65 10.88                                                             
C 24.16  4.65 25.38                                                             
C 24.16  4.65 39.88                                                             
C 24.16  4.65 54.38                                                             
C 24.16  4.65 68.88                                                             
C 28.18  2.32 10.88                                                             
C 28.18  2.32 25.38                                                             
C 28.18  2.32 39.88                                                             
C 28.18  2.32 54.38                                                             
C 28.18  2.32 68.88                                                             
C 12.08 16.27 10.88                                                             
C 12.08 16.27 25.38                                                             
C 12.08 16.27 39.88                                                             
C 12.08 16.27 54.38                                                             
C 12.08 16.27 68.88                                                             
C 16.10 13.95 10.88                                                             
C 16.10 13.95 25.38                                                             
C 16.10 13.95 39.88                                                             
C 16.10 13.95 54.38                                                             
C 16.10 13.95 68.88                                                             
C 20.13 11.62 10.88                                                             
C 20.13 11.62 25.38                                                             
C 20.13 11.62 39.88                                                             
C 20.13 11.62 54.38                                                             
C 20.13 11.62 68.88                                                             
C 24.16  9.30 10.88                                                             
C 24.16  9.30 25.38                                                             
C 24.16  9.30 39.88                                                             
C 24.16  9.30 54.38                                                             
C 24.16  9.30 68.88                                                             
C 28.18  6.97 10.88                                                             
C 28.18  6.97 25.38                                                             
C 28.18  6.97 39.88                                                             
C 28.18  6.97 54.38                                                             
C 28.18  6.97 68.88                                                             
C 20.13 16.27 10.88                                                             
C 20.13 16.27 25.38                                                             
C 20.13 16.27 39.88                                                             
C 20.13 16.27 54.38                                                             
C 20.13 16.27 68.88                                                             
C 24.16 13.95 10.88                                                             
C 24.16 13.95 25.38                                                             
C 24.16 13.95 39.88                                                             
C 24.16 13.95 54.38                                                             
C 24.16 13.95 68.88                                                             
C 28.18 11.62 10.88                                                             
C 28.18 11.62 25.38                                                             
C 28.18 11.62 39.88                                                             
C 28.18 11.62 54.38                                                             
C 28.18 11.62 68.88                                                             
C 28.18 16.27 10.88                                                             
C 28.18 16.27 25.38                                                             
C 28.18 16.27 39.88                                                             
C 28.18 16.27 54.38                                                             
C 28.18 16.27 68.88                                                             
C  1.34  2.32  3.63                                                             
C  1.34  2.32 18.13                                                             
C  1.34  2.32 32.63                                                             
C  1.34  2.32 47.13                                                             
C  1.34  2.32 61.63                                                             
C  5.37  0.00  3.63                                                             
C  5.37  0.00 18.13                                                             
C  5.37  0.00 32.63                                                             
C  5.37  0.00 47.13                                                             
C  5.37  0.00 61.63                                                             
C  1.34  6.97  3.63                                                             
C  1.34  6.97 18.13                                                             
C  1.34  6.97 32.63                                                             
C  1.34  6.97 47.13                                                             
C  1.34  6.97 61.63                                                             
C  5.37  4.65  3.63                                                             
C  5.37  4.65 18.13                                                             
C  5.37  4.65 32.63                                                             
C  5.37  4.65 47.13                                                             
C  5.37  4.65 61.63                                                             
C  9.39  2.32  3.63                                                             
C  9.39  2.32 18.13                                                             
C  9.39  2.32 32.63                                                             
C  9.39  2.32 47.13                                                             
C  9.39  2.32 61.63                                                             
C 13.42  0.00  3.63                                                             
C 13.42  0.00 18.13                                                             
C 13.42  0.00 32.63                                                             
C 13.42  0.00 47.13                                                             
C 13.42  0.00 61.63                                                             
C  1.34 11.62  3.63                                                             
C  1.34 11.62 18.13                                                             
C  1.34 11.62 32.63                                                             
C  1.34 11.62 47.13                                                             
C  1.34 11.62 61.63                                                             
C  5.37  9.30  3.63                                                             
C  5.37  9.30 18.13                                                             
C  5.37  9.30 32.63                                                             
C  5.37  9.30 47.13                                                             
C  5.37  9.30 61.63                                                             
C  9.39  6.97  3.63                                                             
C  9.39  6.97 18.13                                                             
C  9.39  6.97 32.63                                                             
C  9.39  6.97 47.13                                                             
C  9.39  6.97 61.63                                                             
C 13.42  4.65  3.63                                                             
C 13.42  4.65 18.13                                                             
C 13.42  4.65 32.63                                                             
C 13.42  4.65 47.13                                                             
C 13.42  4.65 61.63                                                             
C 17.45  2.32  3.63                                                             
C 17.45  2.32 18.13                                                             
C 17.45  2.32 32.63                                                             
C 17.45  2.32 47.13                                                             
C 17.45  2.32 61.63                                                             
C 21.47  0.00  3.63                                                             
C 21.47  0.00 18.13                                                             
C 21.47  0.00 32.63                                                             
C 21.47  0.00 47.13                                                             
C 21.47  0.00 61.63                                                             
C  1.34 16.27  3.63                                                             
C  1.34 16.27 18.13                                                             
C  1.34 16.27 32.63                                                             
C  1.34 16.27 47.13                                                             
C  1.34 16.27 61.63                                                             
C  5.37 13.95  3.63                                                             
C  5.37 13.95 18.13                                                             
C  5.37 13.95 32.63                                                             
C  5.37 13.95 47.13                                                             
C  5.37 13.95 61.63                                                             
C  9.39 11.62  3.63                                                             
C  9.39 11.62 18.13                                                             
C  9.39 11.62 32.63                                                             
C  9.39 11.62 47.13                                                             
C  9.39 11.62 61.63                                                             
C 13.42  9.30  3.63                                                             
C 13.42  9.30 18.13                                                             
C 13.42  9.30 32.63                                                             
C 13.42  9.30 47.13                                                             
C 13.42  9.30 61.63                                                             
C 17.45  6.97  3.63                                                             
C 17.45  6.97 18.13                                                             
C 17.45  6.97 32.63                                                             
C 17.45  6.97 47.13                                                             
C 17.45  6.97 61.63                                                             
C 21.47  4.65  3.63                                                             
C 21.47  4.65 18.13                                                             
C 21.47  4.65 32.63                                                             
C 21.47  4.65 47.13                                                             
C 21.47  4.65 61.63                                                             
C 25.50  2.32  3.63                                                             
C 25.50  2.32 18.13                                                             
C 25.50  2.32 32.63                                                             
C 25.50  2.32 47.13                                                             
C 25.50  2.32 61.63                                                             
C 29.52  0.00  3.63                                                             
C 29.52  0.00 18.13                                                             
C 29.52  0.00 32.63                                                             
C 29.52  0.00 47.13                                                             
C 29.52  0.00 61.63                                                             
C  9.39 16.27  3.63                                                             
C  9.39 16.27 18.13                                                             
C  9.39 16.27 32.63                                                             
C  9.39 16.27 47.13                                                             
C  9.39 16.27 61.63                                                             
C 13.42 13.95  3.63                                                             
C 13.42 13.95 18.13                                                             
C 13.42 13.95 32.63                                                             
C 13.42 13.95 47.13                                                             
C 13.42 13.95 61.63                                                             
C 17.45 11.62  3.63                                                             
C 17.45 11.62 18.13                                                             
C 17.45 11.62 32.63                                                             
C 17.45 11.62 47.13                                                             
C 17.45 11.62 61.63                                                             
C 21.47  9.30  3.63                                                             
C 21.47  9.30 18.13                                                             
C 21.47  9.30 32.63                                                             
C 21.47  9.30 47.13                                                             
C 21.47  9.30 61.63                                                             
C 25.50  6.97  3.63                                                             
C 25.50  6.97 18.13                                                             
C 25.50  6.97 32.63                                                             
C 25.50  6.97 47.13                                                             
C 25.50  6.97 61.63                                                             
C 29.52  4.65  3.63                                                             
C 29.52  4.65 18.13                                                             
C 29.52  4.65 32.63                                                             
C 29.52  4.65 47.13                                                             
C 29.52  4.65 61.63                                                             
C 17.45 16.27  3.63                                                             
C 17.45 16.27 18.13                                                             
C 17.45 16.27 32.63                                                             
C 17.45 16.27 47.13                                                             
C 17.45 16.27 61.63                                                             
C 21.47 13.95  3.63                                                             
C 21.47 13.95 18.13                                                             
C 21.47 13.95 32.63                                                             
C 21.47 13.95 47.13                                                             
C 21.47 13.95 61.63                                                             
C 25.50 11.62  3.63                                                             
C 25.50 11.62 18.13                                                             
C 25.50 11.62 32.63                                                             
C 25.50 11.62 47.13                                                             
C 25.50 11.62 61.63                                                             
C 29.52  9.30  3.63                                                             
C 29.52  9.30 18.13                                                             
C 29.52  9.30 32.63                                                             
C 29.52  9.30 47.13                                                             
C 29.52  9.30 61.63                                                             
C 25.50 16.27  3.63                                                             
C 25.50 16.27 18.13                                                             
C 25.50 16.27 32.63                                                             
C 25.50 16.27 47.13                                                             
C 25.50 16.27 61.63                                                             
C 29.52 13.95  3.63                                                             
C 29.52 13.95 18.13                                                             
C 29.52 13.95 32.63                                                             
C 29.52 13.95 47.13                                                             
C 29.52 13.95 61.63                                                             
C  2.68  0.00 10.88                                                             
C  2.68  0.00 25.38                                                             
C  2.68  0.00 39.88                                                             
C  2.68  0.00 54.38                                                             
C  2.68  0.00 68.88                                                             
C  2.68  4.65 10.88                                                             
C  2.68  4.65 25.38                                                             
C  2.68  4.65 39.88                                                             
C  2.68  4.65 54.38                                                             
C  2.68  4.65 68.88                                                             
C  6.71  2.32 10.88                                                             
C  6.71  2.32 25.38                                                             
C  6.71  2.32 39.88                                                             
C  6.71  2.32 54.38                                                             
C  6.71  2.32 68.88                                                             
C 10.74  0.00 10.88                                                             
C 10.74  0.00 25.38                                                             
C 10.74  0.00 39.88                                                             
C 10.74  0.00 54.38                                                             
C 10.74  0.00 68.88                                                             
C  2.68  9.30 10.88                                                             
C  2.68  9.30 25.38                                                             
C  2.68  9.30 39.88                                                             
C  2.68  9.30 54.38                                                             
C  2.68  9.30 68.88                                                             
C  6.71  6.97 10.88                                                             
C  6.71  6.97 25.38                                                             
C  6.71  6.97 39.88                                                             
C  6.71  6.97 54.38                                                             
C  6.71  6.97 68.88                                                             
C 10.74  4.65 10.88                                                             
C 10.74  4.65 25.38                                                             
C 10.74  4.65 39.88                                                             
C 10.74  4.65 54.38                                                             
C 10.74  4.65 68.88                                                             
C 14.76  2.32 10.88                                                             
C 14.76  2.32 25.38                                                             
C 14.76  2.32 39.88                                                             
C 14.76  2.32 54.38                                                             
C 14.76  2.32 68.88                                                             
C 18.79  0.00 10.88                                                             
C 18.79  0.00 25.38                                                             
C 18.79  0.00 39.88                                                             
C 18.79  0.00 54.38                                                             
C 18.79  0.00 68.88                                                             
C  2.68 13.95 10.88                                                             
C  2.68 13.95 25.38                                                             
C  2.68 13.95 39.88                                                             
C  2.68 13.95 54.38                                                             
C  2.68 13.95 68.88                                                             
C  6.71 11.62 10.88                                                             
C  6.71 11.62 25.38                                                             
C  6.71 11.62 39.88                                                             
C  6.71 11.62 54.38                                                             
C  6.71 11.62 68.88                                                             
C 10.74  9.30 10.88                                                             
C 10.74  9.30 25.38                                                             
C 10.74  9.30 39.88                                                             
C 10.74  9.30 54.38                                                             
C 10.74  9.30 68.88                                                             
C 14.76  6.97 10.88                                                             
C 14.76  6.97 25.38                                                             
C 14.76  6.97 39.88                                                             
C 14.76  6.97 54.38                                                             
C 14.76  6.97 68.88                                                             
C 18.79  4.65 10.88                                                             
C 18.79  4.65 25.38                                                             
C 18.79  4.65 39.88                                                             
C 18.79  4.65 54.38                                                             
C 18.79  4.65 68.88                                                             
C 22.81  2.32 10.88                                                             
C 22.81  2.32 25.38                                                             
C 22.81  2.32 39.88                                                             
C 22.81  2.32 54.38                                                             
C 22.81  2.32 68.88                                                             
C 26.84  0.00 10.88                                                             
C 26.84  0.00 25.38                                                             
C 26.84  0.00 39.88                                                             
C 26.84  0.00 54.38                                                             
C 26.84  0.00 68.88                                                             
C  6.71 16.27 10.88                                                             
C  6.71 16.27 25.38                                                             
C  6.71 16.27 39.88                                                             
C  6.71 16.27 54.38                                                             
C  6.71 16.27 68.88                                                             
C 10.74 13.95 10.88                                                             
C 10.74 13.95 25.38                                                             
C 10.74 13.95 39.88                                                             
C 10.74 13.95 54.38                                                             
C 10.74 13.95 68.88                                                             
C 14.76 11.62 10.88                                                             
C 14.76 11.62 25.38                                                             
C 14.76 11.62 39.88                                                             
C 14.76 11.62 54.38                                                             
C 14.76 11.62 68.88                                                             
C 18.79  9.30 10.88                                                             
C 18.79  9.30 25.38                                                             
C 18.79  9.30 39.88                                                             
C 18.79  9.30 54.38                                                             
C 18.79  9.30 68.88                                                             
C 22.81  6.97 10.88                                                             
C 22.81  6.97 25.38                                                             
C 22.81  6.97 39.88                                                             
C 22.81  6.97 54.38                                                             
C 22.81  6.97 68.88                                                             
C 26.84  4.65 10.88                                                             
C 26.84  4.65 25.38                                                             
C 26.84  4.65 39.88                                                             
C 26.84  4.65 54.38                                                             
C 26.84  4.65 68.88                                                             
C 30.86  2.32 10.88                                                             
C 30.86  2.32 25.38                                                             
C 30.86  2.32 39.88                                                             
C 30.86  2.32 54.38                                                             
C 30.86  2.32 68.88                                                             
C 14.76 16.27 10.88                                                             
C 14.76 16.27 25.38                                                             
C 14.76 16.27 39.88                                                             
C 14.76 16.27 54.38                                                             
C 14.76 16.27 68.88                                                             
C 18.79 13.95 10.88                                                             
C 18.79 13.95 25.38                                                             
C 18.79 13.95 39.88                                                             
C 18.79 13.95 54.38                                                             
C 18.79 13.95 68.88                                                             
C 22.81 11.62 10.88                                                             
C 22.81 11.62 25.38                                                             
C 22.81 11.62 39.88                                                             
C 22.81 11.62 54.38                                                             
C 22.81 11.62 68.88                                                             
C 26.84  9.30 10.88                                                             
C 26.84  9.30 25.38                                                             
C 26.84  9.30 39.88                                                             
C 26.84  9.30 54.38                                                             
C 26.84  9.30 68.88                                                             
C 30.86  6.97 10.88                                                             
C 30.86  6.97 25.38                                                             
C 30.86  6.97 39.88                                                             
C 30.86  6.97 54.38                                                             
C 30.86  6.97 68.88                                                             
C 22.81 16.27 10.88                                                             
C 22.81 16.27 25.38                                                             
C 22.81 16.27 39.88                                                             
C 22.81 16.27 54.38                                                             
C 22.81 16.27 68.88                                                             
C 26.84 13.95 10.88                                                             
C 26.84 13.95 25.38                                                             
C 26.84 13.95 39.88                                                             
C 26.84 13.95 54.38                                                             
C 26.84 13.95 68.88                                                             
C 30.86 11.62 10.88                                                             
C 30.86 11.62 25.38                                                             
C 30.86 11.62 39.88                                                             
C 30.86 11.62 54.38                                                             
C 30.86 11.62 68.88                                                             
C 30.86 16.27 10.88                                                             
C 30.86 16.27 25.38                                                             
C 30.86 16.27 39.88                                                             
C 30.86 16.27 54.38                                                             
C 30.86 16.27 68.88                                                             
%ENDBLOCK POSITIONS_ABS                                                         

--------------------------------------------------------------------------------
-------------------------------- END INPUT FILE --------------------------------
--------------------------------------------------------------------------------


 
<<<<<<<<<<<<<<<<<<<<<<<<<<<<<<<<< Full system >>>>>>>>>>>>>>>>>>>>>>>>>>>>>>>>>>
<<<<<<<<<<<<<<<<<<<<<<<<<<< PAW Dataset information >>>>>>>>>>>>>>>>>>>>>>>>>>>
File: ~/pp/paw/c_pbe_abinit.paw; rc = 1.25 bohr; shape type =  3; rshape = 1.25 bohr;
  Atomic number:  6;  ionic charge:  4.000000
    Partial Wave 1: l = 0
    Partial Wave 2: l = 0
    Partial Wave 3: l = 1
    Partial Wave 4: l = 1
  Core charge supplied for Nonlinear Core Corrections
<<<<<<<<<<<<<<<<<<<<<<<<<<<<<<<<<<<<<<< >>>>>>>>>>>>>>>>>>>>>>>>>>>>>>>>>>>>>>>

-------------------------- Atom counting information ---------------------------
Symbol    Natoms    Nngwfs    Nprojs
  C        640      2560      5120
.......   ......    ......    ......
Totals:    640      2560      5120
--------------------------------------------------------------------------------

=============================== PSINC grid sizes ===============================
                      Simulation cell:   63 x  35 x 143
                              FFT-box:   63 x  35 x 117
                                  PPD:    7 x   5 x   1
Grid space d1=  0.511269841270a0 (KE cutoff=  29.06054Eh = 790.77748eV)
Grid space d2=  0.531142857143a0 (KE cutoff=  26.92659Eh = 732.70972eV)
Grid space d3=  0.507062937063a0 (KE cutoff=  29.54475Eh = 803.95346eV)
================================================================================
  
WARNING in cell_grid_distribute:
Average of less than one 23-slab per node, so workload cannot be
equally balanced between nodes.

********************* Fourier parallelisation information **********************
       Coarse grid (whole simulation cell) dimensions:     63    35   143
          Real-space ('12') slabs/node (min max mean):      3     4     3
         Recip-space ('23') slabs/node (min max mean):      0     1     0
********************************************************************************

********************* Fourier parallelisation information **********************
       Double grid (whole simulation cell) dimensions:    126    70   286
          Real-space ('12') slabs/node (min max mean):      7     8     7
         Recip-space ('23') slabs/node (min max mean):      1     2     1
********************************************************************************

Atom SCF Calculation for C  : Z (AE atom) =   6 : Z (PS atom) =   4
Config String: 2s2 2p2
Orbitals (num,occ):  2     2.00 2.00
Orbitals   (num,l):  2        0    1
Real-space Grid (nr,dr,rmax): 1293    0.0069659443    9.0000000000
Spherical Bessel Basis (nsws,lmax,cutoff):   37    2  161.4736382572
Confining potential (l,width,scale):  0    3.0000000000  100.0000000000
Confining potential (l,width,scale):  1    3.0000000000  100.0000000000
  1         -5.4795203654   -1.3252209296    4.5135257941   -1.6370402169
  2         -5.4480859746   -1.4027979239    4.4305951748   -1.6109819005
  3         -5.4553164790   -1.4212834043    4.4102618304   -1.6059039466
  4         -5.4627841133   -1.4247091338    4.4065122085   -1.6052907585
  5         -5.4662306655   -1.4266814823    4.4043715292   -1.6049352647
  6         -5.4679520247   -1.4277352742    4.4032348712   -1.6047493439
  7         -5.4688359568   -1.4282868030    4.4026432892   -1.6046541449
  8         -5.4692951245   -1.4285734530    4.4023374832   -1.6046056242
  9         -5.4695349887   -1.4287220785    4.4021797781   -1.6045809101
 10         -5.4696606791   -1.4287991022    4.4020984905   -1.6045683155
 11         -5.4697266650   -1.4288390363    4.4020565747   -1.6045618912
 12         -5.4697613504   -1.4288597596    4.4020349416   -1.6045586107
 13         -5.4697795998   -1.4288705262    4.4020237638   -1.6045569335
 14         -5.4697892089   -1.4288761271    4.4020179806   -1.6045560749
 15         -5.4697942720   -1.4288790448    4.4020149844   -1.6045556348
 16         -5.4697969415   -1.4288805668    4.4020134298   -1.6045554088
 17         -5.4697983498   -1.4288813619    4.4020126220   -1.6045552927
 18         -5.4697990933   -1.4288817779    4.4020122017   -1.6045552329
 19         -5.4697994860   -1.4288819957    4.4020119826   -1.6045552021
 20         -5.4697996936   -1.4288821100    4.4020118683   -1.6045551862
 21         -5.4697998034   -1.4288821701    4.4020118085   -1.6045551780
 22         -5.4697998614   -1.4288822017    4.4020117772   -1.6045551737
Atom SCF converged after  22 iterations to a total energy of     -5.46979986

Determining parallel strategy ...
... using space-filling curve
... NGWF load balancing: max     64;  min     64;  average     64
... Projector load balancing: max    128;  min    128;  average    128
... done
Calculating Ewald energy ...
              Ewald: real-space energy =    9488.921918
        Ewald: reciprocal-space energy =       0.489429
         Ewald: (sum_charge)**2 Energy =   10818.505505
         Ewald: (sum_charge**2) Energy =     855.277957
                          Ewald Energy =   -2184.372114
Basis initialisation ...... NGWF spheres initialised
... Projector spheres initialised
... NGWF tight boxes initialised
... Projector tight boxes initialised
... Tight-boxes gathered
... NGWF basis size (local,global):     692372  27895264
... PAW projector initialisation
... done

============================= Charge Augmentation ==============================
                           Aug box size:   11 x  11 x  11
================================================================================

========================== Sparse matrix information ===========================
                        Overlap matrix filling:  40.31%
                        Density kernel filling: 100.00%
              NGWF-Proj overlap matrix filling:  12.19%
                    Aug Overlap matrix filling:  47.03%
                    Hamiltonian matrix filling:  47.03%
                  NGWF diagonal matrix filling:   0.16%
                             KS matrix filling: 100.00% 
                           KSKS matrix filling: 100.00% 
================================================================================

Sparse matrix initialisation ... done
NGWF initialisation ...... done
============ Calculation of NGWF S^-1 using Hotelling algorithm ================ 
         Iteration  |  Frobenius norm and Maximum abs value    (of I-S*S_n^-1)   
               1       0.48929407E+02     0.97427148E+00
               2       0.47618312E+02     0.95042808E+00
               3       0.45684675E+02     0.90754033E+00
               4       0.43219877E+02     0.83654971E+00
               5       0.40293423E+02     0.73233448E+00
               6       0.36930547E+02     0.67263064E+00
               7       0.33479619E+02     0.62608118E+00
               8       0.30175628E+02     0.58644374E+00
               9       0.26553023E+02     0.54058095E+00
              10       0.21911945E+02     0.46727027E+00
              11       0.15894088E+02     0.35253471E+00
              12       0.91172303E+01     0.20602115E+00
              13       0.34570954E+01     0.75650701E-01
              14       0.59723066E+00     0.11850149E-01
              15       0.21496277E-01     0.36151667E-03
              16       0.37284984E-04     0.44765353E-06
              17       0.17224608E-09     0.12349011E-11
              18       0.67840233E-13     0.37747583E-14
================================================================================
Calculating core density ...
================================= Core Density =================================
               Core den box size:   21 x  21 x  21
================================================================================
 ... done
Up spin density kernel initialisation ...... done

Writing density kernel to file "3.8369616_GO_manual_4x64graphite.dkn" ... done

>>> Optimising kernel for current NGWFs:

--------------------------- Ensemble-DFT optimisation --------------------------
Running ScaLAPACK on   40 processor(s).

--------------------------------------------------------------------------------
  Iter                              Commutator    Free_energy(A=E-TS)     DeltaA
#    0                          0.000034857976   -3648.37536693703532  -3.65E+03

Step                       =       0.381966011250
Energy                     =   -3648.375341819177
Entropy (-TS)              =      -0.000025118030
Free energy (A=E-TS)       =   -3648.375366937035
Est. 0K Energy 0.5*(E+A)   =   -3648.375354378106
Residual Non-orthogonality =       0.000000000000
Residual N_electrons       =       0.000000000172

Spin          Integrated_Ne            Fermi_level     Delta_Fermi_level
   1      2559.999999998854         0.149891218144              1.50E-01

                           Spin 1          
     Orb      H-eigenvalues     Occupancies
       1 |    -0.5732261112    1.0000000000 | 
                          ------
    1276 |     0.1142561533    0.9999870275 | 
    1277 |     0.1148390709    0.9999844058 | 
    1278 |     0.1148736255    0.9999842347 | 
    1279 |     0.1148857306    0.9999841743 | 
    1280 |     0.1154696717    0.9999809698 | 
                 - Gap at zero temperature -
    1281 |     0.1864133515    0.0000098033 | 
    1282 |     0.1864211239    0.0000097793 | 
    1283 |     0.1864271638    0.0000097607 | 
    1284 |     0.1865139351    0.0000094969 | 
    1285 |     0.1865329945    0.0000094399 | 
                          ------
    2560 |     0.9840741729    0.0000000000 | 

                       |  Abs_value |  Threshold | Converged
     Delta_Free_energy |   3.65E+03 |   1.00E-06 |        No
     Delta_Energy      |   3.65E+03 |   1.00E-04 |        No
     Delta_Entropy     |   2.51E-05 |   1.00E-04 |       Yes
     Commutator        |   3.49E-05 |   1.00E-05 |        No
     Delta_Fermi_level |   1.50E-01 |   1.00E-03 |        No

  Line search of the free energy minimum:
  Step_type        Step             Free_energy   Predicted_free_energy
.   Initial    0.000000    -3648.37536693703532
.    Trial1    0.381966    -3648.37670008379064
.    Trial2    0.618034    -3648.37697575274660
. Quadratic    0.655376    -3648.37698112639373    -3648.37698099266072

--------------------------------------------------------------------------------
  Iter                              Commutator    Free_energy(A=E-TS)     DeltaA
#    1                          0.000019256876   -3648.37698112639373  -1.61E-03

Step                       =       0.655375604538
Energy                     =   -3648.376956019346
Entropy (-TS)              =      -0.000025106853
Free energy (A=E-TS)       =   -3648.376981126394
Est. 0K Energy 0.5*(E+A)   =   -3648.376968572870
Residual Non-orthogonality =       0.000000000000
Residual N_electrons       =      -0.000000000195

Spin          Integrated_Ne            Fermi_level     Delta_Fermi_level
   1      2560.000000001317         0.147833876429             -2.06E-03

                           Spin 1          
     Orb      H-eigenvalues     Occupancies
       1 |    -0.5773973652    1.0000000000 | 
                          ------
    1276 |     0.1122579352    0.9999867830 | 
    1277 |     0.1127172910    0.9999847199 | 
    1278 |     0.1127185240    0.9999847139 | 
    1279 |     0.1128367097    0.9999841327 | 
    1280 |     0.1132979982    0.9999816446 | 
                 - Gap at zero temperature -
    1281 |     0.1842753152    0.0000100563 | 
    1282 |     0.1842850390    0.0000100255 | 
    1283 |     0.1843010295    0.0000099750 | 
    1284 |     0.1843829120    0.0000097204 | 
    1285 |     0.1844139695    0.0000096255 | 
                          ------
    2560 |     0.9804835563    0.0000000000 | 

                       |  Abs_value |  Threshold | Converged
     Delta_Free_energy |   1.61E-03 |   1.00E-06 |        No
     Delta_Energy      |   1.61E-03 |   1.00E-04 |        No
     Delta_Entropy     |   1.12E-08 |   1.00E-04 |       Yes
     Commutator        |   1.93E-05 |   1.00E-05 |        No
     Delta_Fermi_level |   2.06E-03 |   1.00E-03 |        No

  Line search of the free energy minimum:
  Step_type        Step             Free_energy   Predicted_free_energy
.   Initial    0.000000    -3648.37698112639373
.    Trial1    0.655376    -3648.37636438877189
.    Trial2    0.250331    -3648.37733190544850
. Quadratic    0.246322    -3648.37733200256616    -3648.37733199837930

--------------------------------------------------------------------------------
  Iter                              Commutator    Free_energy(A=E-TS)     DeltaA
#    2                          0.000009334235   -3648.37733200256616  -3.51E-04

Step                       =       0.246322454228
Energy                     =   -3648.377306904167
Entropy (-TS)              =      -0.000025098484
Free energy (A=E-TS)       =   -3648.377332002566
Est. 0K Energy 0.5*(E+A)   =   -3648.377319453367
Residual Non-orthogonality =       0.000000000000
Residual N_electrons       =       0.000000000085

Spin          Integrated_Ne            Fermi_level     Delta_Fermi_level
   1      2559.999999999427         0.147571816169             -2.62E-04

                           Spin 1          
     Orb      H-eigenvalues     Occupancies
       1 |    -0.5779378090    1.0000000000 | 
                          ------
    1276 |     0.1119587724    0.9999869370 | 
    1277 |     0.1124779264    0.9999846100 | 
    1278 |     0.1124792025    0.9999846038 | 
    1279 |     0.1125358895    0.9999843257 | 
    1280 |     0.1130571103    0.9999815215 | 
                 - Gap at zero temperature -
    1281 |     0.1840390510    0.0000099748 | 
    1282 |     0.1840492325    0.0000099427 | 
    1283 |     0.1840646157    0.0000098946 | 
    1284 |     0.1841492855    0.0000096335 | 
    1285 |     0.1841799232    0.0000095408 | 
                          ------
    2560 |     0.9800147313    0.0000000000 | 

                       |  Abs_value |  Threshold | Converged
     Delta_Free_energy |   3.51E-04 |   1.00E-06 |        No
     Delta_Energy      |   3.51E-04 |   1.00E-04 |        No
     Delta_Entropy     |   8.37E-09 |   1.00E-04 |       Yes
     Commutator        |   9.33E-06 |   1.00E-05 |       Yes
     Delta_Fermi_level |   2.62E-04 |   1.00E-03 |       Yes

  Line search of the free energy minimum:
  Step_type        Step             Free_energy   Predicted_free_energy
.   Initial    0.000000    -3648.37733200256616
.    Trial1    0.246322    -3648.37740491440672
.    Trial2    0.534202    -3648.37741743862853
. Quadratic    0.436284    -3648.37742196529371    -3648.37742197048783

--------------------------------------------------------------------------------
  Iter                              Commutator    Free_energy(A=E-TS)     DeltaA
#    3                          0.000006169103   -3648.37742196529371  -9.00E-05

Step                       =       0.436283515705
Energy                     =   -3648.377396882626
Entropy (-TS)              =      -0.000025082715
Free energy (A=E-TS)       =   -3648.377421965294
Est. 0K Energy 0.5*(E+A)   =   -3648.377409423960
Residual Non-orthogonality =       0.000000000000
Residual N_electrons       =       0.000000000048

Spin          Integrated_Ne            Fermi_level     Delta_Fermi_level
   1      2559.999999999676         0.147219499401             -3.52E-04

                           Spin 1          
     Orb      H-eigenvalues     Occupancies
       1 |    -0.5786493848    1.0000000000 | 
                          ------
    1276 |     0.1115826890    0.9999870346 | 
    1277 |     0.1121329370    0.9999845743 | 
    1278 |     0.1121343013    0.9999845677 | 
    1279 |     0.1121578205    0.9999844526 | 
    1280 |     0.1127102723    0.9999814895 | 
                 - Gap at zero temperature -
    1281 |     0.1837012528    0.0000099291 | 
    1282 |     0.1837119036    0.0000098958 | 
    1283 |     0.1837266537    0.0000098498 | 
    1284 |     0.1838140591    0.0000095817 | 
    1285 |     0.1838442400    0.0000094908 | 
                          ------
    2560 |     0.9794120019    0.0000000000 | 

                       |  Abs_value |  Threshold | Converged
     Delta_Free_energy |   9.00E-05 |   1.00E-06 |        No
     Delta_Energy      |   9.00E-05 |   1.00E-04 |       Yes
     Delta_Entropy     |   1.58E-08 |   1.00E-04 |       Yes
     Commutator        |   6.17E-06 |   1.00E-05 |       Yes
     Delta_Fermi_level |   3.52E-04 |   1.00E-03 |       Yes

  Line search of the free energy minimum:
  Step_type        Step             Free_energy   Predicted_free_energy
.   Initial    0.000000    -3648.37742196529371
.    Trial1    0.436284    -3648.37744095503149
.    Trial2    0.651604    -3648.37738061044593
. Quadratic    0.261940    -3648.37745606493309    -3648.37745605864484

--------------------------------------------------------------------------------
  Iter                              Commutator    Free_energy(A=E-TS)     DeltaA
#    4                          0.000003759534   -3648.37745606493309  -3.41E-05

Step                       =       0.261939612841
Energy                     =   -3648.377430989000
[...]
 C   275 -- C   555       -0.10      5.37000
 C   274 -- C   554       -0.10      5.37000
 C   273 -- C   553       -0.10      5.37000
 C   272 -- C   552       -0.10      5.37000
 C   271 -- C   551       -0.10      5.37000
 C   270 -- C   550       -0.10      5.37000
 C   269 -- C   549       -0.10      5.37000
 C   268 -- C   548       -0.10      5.37000
 C   267 -- C   547       -0.10      5.37000
 C   266 -- C   546       -0.10      5.37000
 C   130 -- C   465       -0.10      5.37000
 C   129 -- C   464       -0.10      5.37000
 C   128 -- C   463       -0.10      5.37000
 C   127 -- C   462       -0.10      5.37000
 C   126 -- C   461       -0.10      5.37000
 C   240 -- C   525       -0.10      5.37000
 C   239 -- C   524       -0.10      5.37000
 C   238 -- C   523       -0.10      5.37000
 C   237 -- C   522       -0.10      5.37000
 C   236 -- C   521       -0.10      5.37000
 C    23 -- C   478       -0.10      5.37202
 C    49 -- C   469       -0.10      5.37202
 C    48 -- C   468       -0.10      5.37202
 C    47 -- C   467       -0.10      5.37202
 C    22 -- C   477       -0.10      5.37202
 C    46 -- C   466       -0.10      5.37202
 C    21 -- C   476       -0.10      5.37202
 C    25 -- C   480       -0.10      5.37202
 C    24 -- C   479       -0.10      5.37202
 C    50 -- C   470       -0.10      5.37202
 C    24 -- C   449       -0.10      5.37202
 C     6 -- C   416       -0.10      5.37202
 C    23 -- C   448       -0.10      5.37202
 C    22 -- C   447       -0.10      5.37202
 C    10 -- C   470       -0.10      5.37202
 C     5 -- C   450       -0.10      5.37202
 C    21 -- C   446       -0.10      5.37202
 C    10 -- C   420       -0.10      5.37202
 C     9 -- C   469       -0.10      5.37202
 C     9 -- C   419       -0.10      5.37202
 C     8 -- C   468       -0.10      5.37202
 C     4 -- C   449       -0.10      5.37202
 C     8 -- C   418       -0.10      5.37202
 C   285 -- C   580       -0.10      5.37202
 C   284 -- C   579       -0.10      5.37202
 C   283 -- C   578       -0.10      5.37202
 C   282 -- C   577       -0.10      5.37202
 C   281 -- C   576       -0.10      5.37202
 C     2 -- C   447       -0.10      5.37202
 C     7 -- C   467       -0.10      5.37202
 C   260 -- C   605       -0.10      5.37202
 C   259 -- C   604       -0.10      5.37202
 C   258 -- C   603       -0.10      5.37202
 C   257 -- C   602       -0.10      5.37202
 C   256 -- C   601       -0.10      5.37202
 C     7 -- C   417       -0.10      5.37202
 C     1 -- C   446       -0.10      5.37202
 C     6 -- C   466       -0.10      5.37202
 C    25 -- C   450       -0.10      5.37202
 C     3 -- C   448       -0.10      5.37202
 C   219 -- C   569       -0.10      5.37202
 C   218 -- C   568       -0.10      5.37202
 C   217 -- C   567       -0.10      5.37202
 C   216 -- C   566       -0.10      5.37202
 C   250 -- C   540       -0.10      5.37202
 C   249 -- C   539       -0.10      5.37202
 C   248 -- C   538       -0.10      5.37202
 C   247 -- C   537       -0.10      5.37202
 C   246 -- C   536       -0.10      5.37202
 C   220 -- C   570       -0.10      5.37202
 C   205 -- C   550       -0.10      5.37202
 C   204 -- C   549       -0.10      5.37202
 C   203 -- C   548       -0.10      5.37202
 C   202 -- C   547       -0.10      5.37202
 C   201 -- C   546       -0.10      5.37202
 C    95 -- C   365       -0.10      5.37202
 C    94 -- C   364       -0.10      5.37202
 C    93 -- C   363       -0.10      5.37202
 C    92 -- C   362       -0.10      5.37202
 C    91 -- C   361       -0.10      5.37202
 C    65 -- C   395       -0.10      5.37202
 C    64 -- C   394       -0.10      5.37202
 C    63 -- C   393       -0.10      5.37202
 C    30 -- C   355       -0.10      5.37202
 C    62 -- C   392       -0.10      5.37202
 C    61 -- C   391       -0.10      5.37202
 C    29 -- C   354       -0.10      5.37202
 C   260 -- C   550       -0.10      5.37202
 C   259 -- C   549       -0.10      5.37202
 C    28 -- C   353       -0.10      5.37202
 C   258 -- C   548       -0.10      5.37202
 C   257 -- C   547       -0.10      5.37202
 C   256 -- C   546       -0.10      5.37202
 C    27 -- C   352       -0.10      5.37202
 C    26 -- C   351       -0.10      5.37202
 C    55 -- C   335       -0.10      5.37202
 C    54 -- C   334       -0.10      5.37202
 C    53 -- C   333       -0.10      5.37202
 C   230 -- C   580       -0.10      5.37202
 C   230 -- C   525       -0.10      5.37202
 C   229 -- C   579       -0.10      5.37202
 C   229 -- C   524       -0.10      5.37202
 C   228 -- C   578       -0.10      5.37202
 C    52 -- C   332       -0.10      5.37202
 C   228 -- C   523       -0.10      5.37202
 C   227 -- C   577       -0.10      5.37202
 C   227 -- C   522       -0.10      5.37202
 C   226 -- C   576       -0.10      5.37202
 C   226 -- C   521       -0.10      5.37202
 C    51 -- C   331       -0.10      5.37202
 C   220 -- C   515       -0.10      5.37202
 C   219 -- C   514       -0.10      5.37202
 C   218 -- C   513       -0.10      5.37202
 C   217 -- C   512       -0.10      5.37202
 C   216 -- C   511       -0.10      5.37202
 C   195 -- C   540       -0.10      5.37202
 C   195 -- C   500       -0.10      5.37202
 C   194 -- C   539       -0.10      5.37202
 C   194 -- C   499       -0.10      5.37202
 C   193 -- C   538       -0.10      5.37202
 C   193 -- C   498       -0.10      5.37202
 C   192 -- C   537       -0.10      5.37202
 C   192 -- C   497       -0.10      5.37202
 C   191 -- C   536       -0.10      5.37202
 C   191 -- C   496       -0.10      5.37202
 C   180 -- C   515       -0.10      5.37202
 C   179 -- C   514       -0.10      5.37202
 C   178 -- C   513       -0.10      5.37202
 C   177 -- C   512       -0.10      5.37202
 C   176 -- C   511       -0.10      5.37202
 C   150 -- C   440       -0.10      5.37202
 C   149 -- C   439       -0.10      5.37202
 C   148 -- C   438       -0.10      5.37202
 C   147 -- C   437       -0.10      5.37202
 C   146 -- C   436       -0.10      5.37202
 C   135 -- C   460       -0.10      5.37202
 C   134 -- C   459       -0.10      5.37202
 C   133 -- C   458       -0.10      5.37202
 C   132 -- C   457       -0.10      5.37202
 C   131 -- C   456       -0.10      5.37202
 C    11 -- C   331       -0.10      5.37202
 C    95 -- C   425       -0.10      5.37202
 C    94 -- C   424       -0.10      5.37202
 C    93 -- C   423       -0.10      5.37202
 C    92 -- C   422       -0.10      5.37202
 C    91 -- C   421       -0.10      5.37202
 C    85 -- C   355       -0.10      5.37202
 C    40 -- C   365       -0.10      5.37202
 C    84 -- C   354       -0.10      5.37202
 C    83 -- C   353       -0.10      5.37202
 C    82 -- C   352       -0.10      5.37202
 C    39 -- C   364       -0.10      5.37202
 C    81 -- C   351       -0.10      5.37202
 C    38 -- C   363       -0.10      5.37202
 C    37 -- C   362       -0.10      5.37202
 C    36 -- C   361       -0.10      5.37202
 C    15 -- C   335       -0.10      5.37202
 C    65 -- C   345       -0.10      5.37202
 C    64 -- C   344       -0.10      5.37202
 C    63 -- C   343       -0.10      5.37202
 C    30 -- C   325       -0.10      5.37202
 C    62 -- C   342       -0.10      5.37202
 C    14 -- C   334       -0.10      5.37202
 C    61 -- C   341       -0.10      5.37202
 C    29 -- C   324       -0.10      5.37202
 C    28 -- C   323       -0.10      5.37202
 C    13 -- C   333       -0.10      5.37202
 C    27 -- C   322       -0.10      5.37202
 C   120 -- C   395       -0.10      5.37202
 C    55 -- C   385       -0.10      5.37202
 C   119 -- C   394       -0.10      5.37202
 C   118 -- C   393       -0.10      5.37202
 C   117 -- C   392       -0.10      5.37202
 C    54 -- C   384       -0.10      5.37202
 C    26 -- C   321       -0.10      5.37202
 C   116 -- C   391       -0.10      5.37202
 C    53 -- C   383       -0.10      5.37202
 C    12 -- C   332       -0.10      5.37202
 C    52 -- C   382       -0.10      5.37202
 C    51 -- C   381       -0.10      5.37202
 C   106 -- C   436       -0.10      5.37202
 C   106 -- C   376       -0.10      5.37202
 C    80 -- C   410       -0.10      5.37202
 C    79 -- C   409       -0.10      5.37202
 C    78 -- C   408       -0.10      5.37202
 C    77 -- C   407       -0.10      5.37202
 C    76 -- C   406       -0.10      5.37202
 C   135 -- C   410       -0.10      5.37202
 C   134 -- C   409       -0.10      5.37202
 C   133 -- C   408       -0.10      5.37202
 C   132 -- C   407       -0.10      5.37202
 C   131 -- C   406       -0.10      5.37202
 C   110 -- C   440       -0.10      5.37202
 C   110 -- C   380       -0.10      5.37202
 C   109 -- C   439       -0.10      5.37202
 C   109 -- C   379       -0.10      5.37202
 C   108 -- C   438       -0.10      5.37202
 C   108 -- C   378       -0.10      5.37202
 C   107 -- C   437       -0.10      5.37202
 C   107 -- C   377       -0.10      5.37202
 C   215 -- C   635       -0.10      5.38000
 C   214 -- C   634       -0.10      5.38000
 C   213 -- C   633       -0.10      5.38000
 C   212 -- C   632       -0.10      5.38000
 C   211 -- C   631       -0.10      5.38000
 C   190 -- C   620       -0.10      5.38000
 C   189 -- C   619       -0.10      5.38000
 C   188 -- C   618       -0.10      5.38000
 C   187 -- C   617       -0.10      5.38000
 C   186 -- C   616       -0.10      5.38000
 C   175 -- C   595       -0.10      5.38000
 C   174 -- C   594       -0.10      5.38000
 C   173 -- C   593       -0.10      5.38000
 C   172 -- C   592       -0.10      5.38000
 C   171 -- C   591       -0.10      5.38000
 C   245 -- C   640       -0.10      5.38000
 C   244 -- C   639       -0.10      5.38000
 C   243 -- C   638       -0.10      5.38000
 C   242 -- C   637       -0.10      5.38000
 C   241 -- C   636       -0.10      5.38000
==================================================


=================== Orbital energy and occupancy information ===================

      Total number of orbitals:    2560
        Occupancy sum (kernel):    1279.999999999
   Occupancy sum (eigenvalues):    1279.999999999
                 HOMO-LUMO gap:       0.067496957 Eh
                 Mid-gap level:       0.206577630 Eh

                        Orbital | Energy (Eh) | Occupancy
                            1    -0.513925738   1.0000000
                        .......   ...........   .........
                         1271     0.169065857   0.9999891
                         1272     0.169075310   0.9999891
                         1273     0.169537148   0.9999873
                         1274     0.169546606   0.9999873
                         1275     0.171520127   0.9999763
                         1276     0.171528924   0.9999763
                         1277     0.171991140   0.9999725
                         1278     0.171999920   0.9999725
                         1279     0.172359465   0.9999691
                         1280     0.172829151   0.9999642
                        ....... -- gap at 0K -- .........
                         1281     0.240326108   0.0000153
                         1282     0.240330585   0.0000152
                         1283     0.240572974   0.0000142
                         1284     0.240575150   0.0000141
                         1285     0.240577291   0.0000141
                         1286     0.240579307   0.0000141
                         1287     0.240754923   0.0000134
                         1288     0.240830871   0.0000131
                         1289     0.240835109   0.0000130
                         1290     0.240924837   0.0000126
                        .......   ...........   .........
                         2560     1.100899610   0.0000000

================================================================================

===================== Writing canonical molecular orbitals =====================
| Orbital  Energy (eV)  Norm     |
| HOMO      4.70292051  1.000000 | Writing "3.8369616_GO_manual_4x64graphite_HOMO.cube" ... done
Writing "3.8369616_GO_manual_4x64graphite_HOMO.dx" ... done
| LUMO      6.53960615  1.000000 | Writing "3.8369616_GO_manual_4x64graphite_LUMO.cube" ... done
Writing "3.8369616_GO_manual_4x64graphite_LUMO.dx" ... done
================================================================================
 
===================== Density of States (DOS) calculation ======================
Writing "3.8369616_GO_manual_4x64graphite_DOS.txt" ...  done
================================================================================
 
Writing bands to file "3.8369616_GO_manual_4x64graphite.val_bands" ... done
 
================ Projected Density of States (pDOS) calculation ================
 
Constructing AM resolved functions  ...... done
Writing NGWF plot files in formats: CUBE DX ...  done
 
Performing overlap integrals ...  done
 
Computing pDOS weights ...  done
 
All bands spilling parameter =   2.98 %
Occupancy-weighted spilling parameter =   0.95 %
 
 => Outputting data for OptaDOS <=
 
Writing pDOS weights to file "3.8369616_GO_manual_4x64graphite.val_pdos_bin" ... done
 
Writing band gradients to file "3.8369616_GO_manual_4x64graphite.val_dome_bin" ... done
 
Writing Castep output cell file to "3.8369616_GO_manual_4x64graphite-out.cell" ... done
 
 => Computing Gaussian smeared pDOS <= 
Writing "3.8369616_GO_manual_4x64graphite_PDOS.txt" ...  done
 
 => Computing Occupancy-weighted Gaussian smeared pDOS <= 
Writing "3.8369616_GO_manual_4x64graphite_occ_PDOS.txt" ...  done
  => Band centres: 
 S band centre of group 1:  -13.772940 eV
 P band centre of group 1:   -6.651001 eV
  Band centres done. <=
  => Integrated number of electrons in each AM band: 
 S num electrons of group 1:  575.417414
 P num electrons of group 1: 1960.203249
  Integrated number of electrons done. <=
================================================================================

------------------------------ TIMING INFORMATION ------------------------------
AVERAGE TIME:    2993.332s on     40 node(s)                                    
TOTAL TIME:      2993.334s on     40 node(s)                                    
================= AVERAGE TIMINGS FROM ALL NODES (CUMULATIVE) ==================
|| TAG                                    #calls    cpu time   %total  Gflops ||
|| work_imbalance                       :     1        0.00s   0.000%  ------ ||
|| paw_tcore_hartree_on_grid            :     1        0.01s   0.000%  ------ ||
|| paw_tcore_density                    :     1        0.01s   0.000%  ------ ||
|| paw_sphere_density_on_grid           :     1        0.01s   0.000%  ------ ||
|| sparse_set_to_garbage                :   135        0.02s   0.001%  ------ ||
|| paw_dij_hartree                      :   275        0.03s   0.001%  ------ ||
|| pseudo_make_structure_factor         :     1        0.06s   0.002%  ------ ||
|| basis_extract_function_from_box      :  1536        0.06s   0.002%  ------ ||
|| paw_species_calc_proj_prec_mat       :     1        0.12s   0.004%  ------ ||
|| paw_dataset_init                     :     1        0.19s   0.006%  ------ ||
|| density_init_guess_real              :     1        0.24s   0.008%  ------ ||
|| restart_kernel_write                 :    13        0.66s   0.022%  ------ ||
|| ngwfs_initialise_from_radial         :     2        0.67s   0.022%  ------ ||
|| sparse_init                          :     1        0.87s   0.029%  ------ ||
|| dense_normal_eigensolve              :     1        1.11s   0.037%  ------ ||
|| hartree_on_grid                      :   207        1.13s   0.038%  ------ ||
|| projectors_init_fftbox_recip         :   121        2.35s   0.078%  ------ ||
|| ewald_calculate_energy               :     1        3.56s   0.119%  ------ ||
|| fourier_apply_box_pair               :  2272        3.76s   0.126% 559.911 ||
|| basis_copy_function_to_box           : 19712        4.27s   0.143%  ------ ||
|| augmentation_screen_dij              :   212        4.69s   0.157%  ------ ||
|| sparse_embed_hotelling_invert_embed  :    23        6.50s   0.217%  ------ ||
|| sw_init                              :     1        6.73s   0.225%  ------ ||
|| ngwf_gradient_coeffs                 :    12        8.87s   0.296%  ------ ||
|| sparse_trace                         :  2488       10.98s   0.367%  ------ ||
|| cell_grid_extract_box_real           :  8332       12.78s   0.427%  ------ ||
|| fourier_apply_cell_backward          :  6388       13.35s   0.446%  64.867 ||
|| fourier_apply_cell_forward           :  5975       14.84s   0.496%  54.566 ||
|| cell_grid_deposit_box_real           : 26672       16.04s   0.536%  ------ ||
|| paw_dij_xc                           :   275       25.03s   0.836%  ------ ||
|| density_fftbox_deposit_to_cell       : 13248       31.72s   1.060%  ------ ||
|| aug_nonlocal_mat                     :   263       33.37s   1.115%  ------ ||
|| augmentation_density_on_grid         :   207       37.08s   1.239%  ------ ||
|| function_ops_brappd_ketppd           :    48       43.32s   1.447%  ------ ||
|| hamiltonian_energy_components        :     3       45.59s   1.523%  ------ ||
|| eigenstates_pdos                     :     1       48.00s   1.604%  ------ ||
|| eigenstates_calculate                :     1       51.99s   1.737%  ------ ||
|| projectors_func_ovlp_box             :    24       52.95s   1.769%  ------ ||
|| nlxc_vdw_energy                      :   412       59.70s   1.994%  ------ ||
|| xc_energy_potential                  :   206       64.97s   2.170%  ------ ||
|| integrals_kinetic                    :    23       72.48s   2.421%  ------ ||
|| dense_eigensolve                     :   180       91.32s   3.051%  ------ ||
|| properties_calculate                 :     1       93.60s   3.127%  ------ ||
|| potential_apply_to_ngwf_batch        :   260      100.51s   3.358%  ------ ||
|| sparse_product                       :  2531      101.46s   3.390%  ------ ||
|| restart_ngwfs_tightbox_output        :    11      123.87s   4.138%  ------ ||
|| basis_dot_function_with_box          : 6.012M     164.67s   5.501%  ------ ||
|| fourier_apply_box                    : 62192      192.70s   6.438% 979.460 ||
|| edft_diag_ngwf_ham                   :   179      201.12s   6.719%  ------ ||
|| integrals_locpot_mat_els_batch       :   260      211.79s   7.075%  ------ ||
|| projectors_gradient_batch            :    48      217.91s   7.280%  ------ ||
|| density_fftbox_interpolate_multiply  : 13248      256.88s   8.582%  ------ ||
|| projectors_grad_precond_batch        :    48      298.20s   9.962%  ------ ||
|| integrals_locpot_dbl_grid            :    65      313.33s  10.468%  ------ ||
|| density_batch_interp_deposit         :   828      318.74s  10.648%  ------ ||
|| edft_apply_smearing_operator         :   179      389.03s  12.997%  ------ ||
|| basis_add_function_to_box            : 16.84M     445.39s  14.880%  ------ ||
|| ngwf_gradient_build_batch            :    48      552.43s  18.455%  ------ ||
|| density_batch_row_sums               :   828      600.57s  20.064%  ------ ||
|| ngwf_gradient_batch                  :    48      725.12s  24.225%  ------ ||
|| ngwf_gradient_lnv                    :    12      752.24s  25.131%  ------ ||
|| density_on_dbl_grid                  :   207      931.36s  31.114%  ------ ||
|| hamiltonian_lhxc_calculate           :   202     1011.38s  33.788%  ------ ||
|| edft_calculate                       :    12     1701.26s  56.835%  ------ ||
|| ngwf_cg_optimise                     :     1     2873.68s  96.003%  ------ ||
|| total_time                           :     1     2993.33s 100.000%  ------ ||
================================================================================
Overhead of generating timer report: 
- 0 ms averaging over threads,
- 8 ms ensuring consistency across MPI ranks,
- 0 ms printing in order.

Job completed: 29-02-2020 11:19 (-0000)

