 +---------------------------------------------------------------+
 |                                                               |
 |        ####### #     # ####### ####### ####### ######         |
 |        #     # ##    # #          #    #       #     #        |
 |        #     # # #   # #          #    #       #     #        |
 |        #     # #  #  # #####      #    #####   ######         |
 |        #     # #   # # #          #    #       #              |
 |        #     # #    ## #          #    #       #              |
 |        ####### #     # #######    #    ####### #              |
 |                                                               |
 |        Linear-Scaling Ab Initio Total Energy Program          |
 |                                                               |
 |          Release for academic collaborators of ODG            |
 |                                             Version 5.3.2.12  |
 |                                                               |
 +---------------------------------------------------------------+
 |                                                               |
 |  Authors:                                                     |
 |  Jacek Dziedzic, Peter D. Haynes, Nicholas D. M. Hine,        |
 |  Arash. A. Mostofi, Mike C. Payne and Chris-Kriton Skylaris   |
 |                                                               |
 |  Contributors:                                                |
 |  J. Aarons, L. Andrinopoulos, P. W. Avraam, R. A. Bell,       |
 |  A. Bhandari, G. A. Bramley, R. J. Charlton, S. J. Clark,     |
 |  R. J. Clements, G. C. Constantinescu, F. Corsetti,           |
 |  N. Corsini, O. Dieguez, S. M. M. Dubois, K. K. B. Duff,      |
 |  J. M. Escartin, A. Greco, H. Helal, Q. O. Hill, L. P. Lee,   |
 |  J.-H. Li, E. B. Linscott, G. Moynihan, D. D. O`Regan,        |
 |  O. K. Okan, M. J. S. Phipps, C. J. Pickard,                  |
 |  J. C. A. Prentice, M. I. J. Probert, L. E. Ratcliff,         |
 |  M. Robinson, A. Ruiz Serrano, J. S. Spencer, E. W. Tait,     |
 |  G. Teobaldi, D. Turban, V. Vitale, K. A. Wilkinson,          |
 |  C. Weber, J. C. Womack, N. Yeung and T. J. Zuehlsdorff       |
 |                                                               |
 |                                   Copyright (c) 2004-2020     |
 |                                                               |
 |  Please cite:                                                 |
 |  "Introducing ONETEP: Linear-scaling density functional       |
 |   simulations on parallel computers".                         |
 |   C.-K. Skylaris, P. D. Haynes, A. A. Mostofi, M. C. Payne.   |
 |   J. Chem. Phys. 122 084119 (2005).                           |
 |                                                               |
 |          in all publications arising from your use of ONETEP. |
 |                                                               |
 +---------------------------------------------------------------+
 |                                                               |
 |   ONETEP is based on developments described in the following  |
 |   publications:                                               |
 |                                                               |
 |  "Nonorthogonal generalized Wannier function pseudopotential  |
 |   plane-wave method".                                         |
 |   C.-K. Skylaris, A. A. Mostofi, P. D. Haynes, O. Dieguez,    |
 |   M. C. Payne.                                                |
 |   Phys. Rev. B 66 035119 (2002).                              |
 |                                                               |
 |  "Preconditioned iterative minimization for linear-scaling    |
 |   electronic structure calculations".                         |
 |   A. A. Mostofi, P. D. Haynes, C.-K. Skylaris, M. C. Payne.   |
 |   J. Chem. Phys. 119(17), pp.8842-8848 (2003).                |
 |                                                               |
 |  "Total-energy calculations on a real space grid with         |
 |   localized functions and a plane-wave basis".                |
 |   A. A. Mostofi, C.-K. Skylaris, P. D. Haynes, M. C. Payne.   |
 |   Comput. Phys. Commun. 147, pp.788-802 (2002).               |
 |                                                               |
 |  "Accurate kinetic energy evaluation in electronic structure  |
 |   calculations with localized functions on real space grids"  |
 |   C.-K. Skylaris, A. A. Mostofi, P. D. Haynes, C. J. Pickard, |
 |   M. C. Payne.                                                |
 |   Comput. Phys. Commun. 140, pp.315-322 (2001).               |
 |                                                               |
 |  "Accurate ionic forces and geometry optimization in linear-  |
 |   scaling density-functional theory with local orbitals"      |
 |   N. D. M. Hine, M. Robinson, P. D. Haynes, C.-K. Skylaris,   |
 |   M. C. Payne, and A. A. Mostofi.                             |
 |   Phys. Rev. B 83 195102 (2011).                              |
 |                                                               |
 +---------------------------------------------------------------+

Job started: 29-02-2020 10:31 (-0000)
 
Reading parameters from file "3.8637928_GO_manual_4x64graphite.dat" ...

WARNING: "cutoff_energy" not specified, but "psinc_spacing" specified.
         Using the latter to set the KE cutoff energy to  732.32021eV,
         thus *overriding* the default.

... done

If your calculation crashes here, before "Checking processes and threads..."
is displayed, then your stack size is insufficient.
If so, use "ulimit -s unlimited" at runtime.
You can disable this check with "check_stack_size F".

Checking processes and threads...
   Determining the default number of threads...
      No default threads set at compilation time: defaulting to 1.
      OpenMP library call suggests 4 threads.
      Hybrid MPI-OpenMP compilation detected.
      Number of MPI processes > 1.
      OMP_NUM_THREADS environment variable present and
      its value matches the one obtained from the OpenMP library call.
      Using this value as default.
      Default threads: 4
      Default applies to threads_max and threads_num_fftboxes.
      Settings in the input file override this default.
   ... done

   Running with 40 MPI processes.
   There are 10 MPI processes running on the same node as the root process.
   Each MPI process is using: 
               1 threads for simulation cell FFTs.
               1 threads for parallel FFT box operations.
               4 threads for loops over batched FFT box operations.
               4 threads in other parallel regions.
... done

Basic input checks...
Resetting ngwf_cg_rotate to TRUE for EDFT calculations
... done

Reading geometry and species blocks from file "3.8637928_GO_manual_4x64graphite.dat" ...
    
  PSINC grid spacing along a1 set to   0.511215680000a0 from input file.
  PSINC grid spacing along a2 set to   0.531284090000a0 from input file.
  PSINC grid spacing along a3 set to   0.507050360000a0 from input file.
  Number of PPD points along a3 set to 1.  This is 
  the default value, it may have been provided also in the input file.
... done
 Writing xyz coordinates to file "3.8637928_GO_manual_4x64graphite.xyz" ... done


--------------------------------------------------------------------------------
---------------------------------- INPUT FILE ----------------------------------
--------------------------------------------------------------------------------

task : singlepoint                                                              
do_properties : true                                                            
dx_format T                                                                     
edft T                                                                          
output_detail VERBOSE                                                           
write_xyz T                                                                     
xc_functional OPTPBE                                                            
PSINC_SPACING 0.51121568 0.53128409 0.50705036                                  
paw T                                                                           
pdos_max_l = 2                                                                  
dos_smear  0.1 eV                                                               
popn_calculate T                                                                
PDOS_PSEUDOATOMIC T                                                             
PDOS_REDUCE_SWS F                                                               
PDOS_CONSTRUCT_BASIS F                                                          
PDOS_LOWDIN T                                                                   
PDOS_ORTH_ATOM_BLOCKS F                                                         
PDOS_LCAO_OPTIMIZE F                                                            
pdos_optados_output T                                                           
homo_plot 0                                                                     
lumo_plot 0                                                                     
homo_dens_plot -1                                                               
lumo_dens_plot -1                                                               
%BLOCK SPECIES                                                                  
C C 6 4 9.0                                                                     
%ENDBLOCK SPECIES                                                               
%BLOCK SPECIES_POT                                                              
C "~/pp/paw/c_pbe_abinit.paw"                                                   
%ENDBLOCK SPECIES_POT                                                           
%BLOCK SPECIES_ATOMIC_SET                                                       
C "SOLVE conf=2s2 2p2"                                                          
%ENDBLOCK SPECIES_ATOMIC_SET                                                    
%BLOCK LATTICE_CART                                                             
32.21  0.00  0.00                                                               
0.00 18.59  0.00                                                                
0.00  0.00 73.02                                                                
%ENDBLOCK LATTICE_CART                                                          
%BLOCK POSITIONS_ABS                                                            
C  0.00  0.00  3.65                                                             
C  0.00  0.00 18.25                                                             
C  0.00  0.00 32.86                                                             
C  0.00  0.00 47.46                                                             
C  0.00  0.00 62.06                                                             
C  0.00  4.65  3.65                                                             
C  0.00  4.65 18.25                                                             
C  0.00  4.65 32.86                                                             
C  0.00  4.65 47.46                                                             
C  0.00  4.65 62.06                                                             
C  4.03  2.32  3.65                                                             
C  4.03  2.32 18.25                                                             
C  4.03  2.32 32.86                                                             
C  4.03  2.32 47.46                                                             
C  4.03  2.32 62.06                                                             
C  8.05  0.00  3.65                                                             
C  8.05  0.00 18.25                                                             
C  8.05  0.00 32.86                                                             
C  8.05  0.00 47.46                                                             
C  8.05  0.00 62.06                                                             
C  0.00  9.30  3.65                                                             
C  0.00  9.30 18.25                                                             
C  0.00  9.30 32.86                                                             
C  0.00  9.30 47.46                                                             
C  0.00  9.30 62.06                                                             
C  4.03  6.97  3.65                                                             
C  4.03  6.97 18.25                                                             
C  4.03  6.97 32.86                                                             
C  4.03  6.97 47.46                                                             
C  4.03  6.97 62.06                                                             
C  8.05  4.65  3.65                                                             
C  8.05  4.65 18.25                                                             
C  8.05  4.65 32.86                                                             
C  8.05  4.65 47.46                                                             
C  8.05  4.65 62.06                                                             
C 12.08  2.32  3.65                                                             
C 12.08  2.32 18.25                                                             
C 12.08  2.32 32.86                                                             
C 12.08  2.32 47.46                                                             
C 12.08  2.32 62.06                                                             
C 16.10  0.00  3.65                                                             
C 16.10  0.00 18.25                                                             
C 16.10  0.00 32.86                                                             
C 16.10  0.00 47.46                                                             
C 16.10  0.00 62.06                                                             
C  0.00 13.95  3.65                                                             
C  0.00 13.95 18.25                                                             
C  0.00 13.95 32.86                                                             
C  0.00 13.95 47.46                                                             
C  0.00 13.95 62.06                                                             
C  4.03 11.62  3.65                                                             
C  4.03 11.62 18.25                                                             
C  4.03 11.62 32.86                                                             
C  4.03 11.62 47.46                                                             
C  4.03 11.62 62.06                                                             
C  8.05  9.30  3.65                                                             
C  8.05  9.30 18.25                                                             
C  8.05  9.30 32.86                                                             
C  8.05  9.30 47.46                                                             
C  8.05  9.30 62.06                                                             
C 12.08  6.97  3.65                                                             
C 12.08  6.97 18.25                                                             
C 12.08  6.97 32.86                                                             
C 12.08  6.97 47.46                                                             
C 12.08  6.97 62.06                                                             
C 16.10  4.65  3.65                                                             
C 16.10  4.65 18.25                                                             
C 16.10  4.65 32.86                                                             
C 16.10  4.65 47.46                                                             
C 16.10  4.65 62.06                                                             
C 20.13  2.32  3.65                                                             
C 20.13  2.32 18.25                                                             
C 20.13  2.32 32.86                                                             
C 20.13  2.32 47.46                                                             
C 20.13  2.32 62.06                                                             
C 24.16  0.00  3.65                                                             
C 24.16  0.00 18.25                                                             
C 24.16  0.00 32.86                                                             
C 24.16  0.00 47.46                                                             
C 24.16  0.00 62.06                                                             
C  4.03 16.27  3.65                                                             
C  4.03 16.27 18.25                                                             
C  4.03 16.27 32.86                                                             
C  4.03 16.27 47.46                                                             
C  4.03 16.27 62.06                                                             
C  8.05 13.95  3.65                                                             
C  8.05 13.95 18.25                                                             
C  8.05 13.95 32.86                                                             
C  8.05 13.95 47.46                                                             
C  8.05 13.95 62.06                                                             
C 12.08 11.62  3.65                                                             
C 12.08 11.62 18.25                                                             
C 12.08 11.62 32.86                                                             
C 12.08 11.62 47.46                                                             
C 12.08 11.62 62.06                                                             
C 16.10  9.30  3.65                                                             
C 16.10  9.30 18.25                                                             
C 16.10  9.30 32.86                                                             
C 16.10  9.30 47.46                                                             
C 16.10  9.30 62.06                                                             
C 20.13  6.97  3.65                                                             
C 20.13  6.97 18.25                                                             
C 20.13  6.97 32.86                                                             
C 20.13  6.97 47.46                                                             
C 20.13  6.97 62.06                                                             
C 24.16  4.65  3.65                                                             
C 24.16  4.65 18.25                                                             
C 24.16  4.65 32.86                                                             
C 24.16  4.65 47.46                                                             
C 24.16  4.65 62.06                                                             
C 28.18  2.32  3.65                                                             
C 28.18  2.32 18.25                                                             
C 28.18  2.32 32.86                                                             
C 28.18  2.32 47.46                                                             
C 28.18  2.32 62.06                                                             
C 12.08 16.27  3.65                                                             
C 12.08 16.27 18.25                                                             
C 12.08 16.27 32.86                                                             
C 12.08 16.27 47.46                                                             
C 12.08 16.27 62.06                                                             
C 16.10 13.95  3.65                                                             
C 16.10 13.95 18.25                                                             
C 16.10 13.95 32.86                                                             
C 16.10 13.95 47.46                                                             
C 16.10 13.95 62.06                                                             
C 20.13 11.62  3.65                                                             
C 20.13 11.62 18.25                                                             
C 20.13 11.62 32.86                                                             
C 20.13 11.62 47.46                                                             
C 20.13 11.62 62.06                                                             
C 24.16  9.30  3.65                                                             
C 24.16  9.30 18.25                                                             
C 24.16  9.30 32.86                                                             
C 24.16  9.30 47.46                                                             
C 24.16  9.30 62.06                                                             
C 28.18  6.97  3.65                                                             
C 28.18  6.97 18.25                                                             
C 28.18  6.97 32.86                                                             
C 28.18  6.97 47.46                                                             
C 28.18  6.97 62.06                                                             
C 20.13 16.27  3.65                                                             
C 20.13 16.27 18.25                                                             
C 20.13 16.27 32.86                                                             
C 20.13 16.27 47.46                                                             
C 20.13 16.27 62.06                                                             
C 24.16 13.95  3.65                                                             
C 24.16 13.95 18.25                                                             
C 24.16 13.95 32.86                                                             
C 24.16 13.95 47.46                                                             
C 24.16 13.95 62.06                                                             
C 28.18 11.62  3.65                                                             
C 28.18 11.62 18.25                                                             
C 28.18 11.62 32.86                                                             
C 28.18 11.62 47.46                                                             
C 28.18 11.62 62.06                                                             
C 28.18 16.27  3.65                                                             
C 28.18 16.27 18.25                                                             
C 28.18 16.27 32.86                                                             
C 28.18 16.27 47.46                                                             
C 28.18 16.27 62.06                                                             
C  0.00  0.00 10.95                                                             
C  0.00  0.00 25.56                                                             
C  0.00  0.00 40.16                                                             
C  0.00  0.00 54.76                                                             
C  0.00  0.00 69.36                                                             
C  0.00  4.65 10.95                                                             
C  0.00  4.65 25.56                                                             
C  0.00  4.65 40.16                                                             
C  0.00  4.65 54.76                                                             
C  0.00  4.65 69.36                                                             
C  4.03  2.32 10.95                                                             
C  4.03  2.32 25.56                                                             
C  4.03  2.32 40.16                                                             
C  4.03  2.32 54.76                                                             
C  4.03  2.32 69.36                                                             
C  8.05  0.00 10.95                                                             
C  8.05  0.00 25.56                                                             
C  8.05  0.00 40.16                                                             
C  8.05  0.00 54.76                                                             
C  8.05  0.00 69.36                                                             
C  0.00  9.30 10.95                                                             
C  0.00  9.30 25.56                                                             
C  0.00  9.30 40.16                                                             
C  0.00  9.30 54.76                                                             
C  0.00  9.30 69.36                                                             
C  4.03  6.97 10.95                                                             
C  4.03  6.97 25.56                                                             
C  4.03  6.97 40.16                                                             
C  4.03  6.97 54.76                                                             
C  4.03  6.97 69.36                                                             
C  8.05  4.65 10.95                                                             
C  8.05  4.65 25.56                                                             
C  8.05  4.65 40.16                                                             
C  8.05  4.65 54.76                                                             
C  8.05  4.65 69.36                                                             
C 12.08  2.32 10.95                                                             
C 12.08  2.32 25.56                                                             
C 12.08  2.32 40.16                                                             
C 12.08  2.32 54.76                                                             
C 12.08  2.32 69.36                                                             
C 16.10  0.00 10.95                                                             
C 16.10  0.00 25.56                                                             
C 16.10  0.00 40.16                                                             
C 16.10  0.00 54.76                                                             
C 16.10  0.00 69.36                                                             
C  0.00 13.95 10.95                                                             
C  0.00 13.95 25.56                                                             
C  0.00 13.95 40.16                                                             
C  0.00 13.95 54.76                                                             
C  0.00 13.95 69.36                                                             
C  4.03 11.62 10.95                                                             
C  4.03 11.62 25.56                                                             
C  4.03 11.62 40.16                                                             
C  4.03 11.62 54.76                                                             
C  4.03 11.62 69.36                                                             
C  8.05  9.30 10.95                                                             
C  8.05  9.30 25.56                                                             
C  8.05  9.30 40.16                                                             
C  8.05  9.30 54.76                                                             
C  8.05  9.30 69.36                                                             
C 12.08  6.97 10.95                                                             
C 12.08  6.97 25.56                                                             
C 12.08  6.97 40.16                                                             
C 12.08  6.97 54.76                                                             
C 12.08  6.97 69.36                                                             
C 16.10  4.65 10.95                                                             
C 16.10  4.65 25.56                                                             
C 16.10  4.65 40.16                                                             
C 16.10  4.65 54.76                                                             
C 16.10  4.65 69.36                                                             
C 20.13  2.32 10.95                                                             
C 20.13  2.32 25.56                                                             
C 20.13  2.32 40.16                                                             
C 20.13  2.32 54.76                                                             
C 20.13  2.32 69.36                                                             
C 24.16  0.00 10.95                                                             
C 24.16  0.00 25.56                                                             
C 24.16  0.00 40.16                                                             
C 24.16  0.00 54.76                                                             
C 24.16  0.00 69.36                                                             
C  4.03 16.27 10.95                                                             
C  4.03 16.27 25.56                                                             
C  4.03 16.27 40.16                                                             
C  4.03 16.27 54.76                                                             
C  4.03 16.27 69.36                                                             
C  8.05 13.95 10.95                                                             
C  8.05 13.95 25.56                                                             
C  8.05 13.95 40.16                                                             
C  8.05 13.95 54.76                                                             
C  8.05 13.95 69.36                                                             
C 12.08 11.62 10.95                                                             
C 12.08 11.62 25.56                                                             
C 12.08 11.62 40.16                                                             
C 12.08 11.62 54.76                                                             
C 12.08 11.62 69.36                                                             
C 16.10  9.30 10.95                                                             
C 16.10  9.30 25.56                                                             
C 16.10  9.30 40.16                                                             
C 16.10  9.30 54.76                                                             
C 16.10  9.30 69.36                                                             
C 20.13  6.97 10.95                                                             
C 20.13  6.97 25.56                                                             
C 20.13  6.97 40.16                                                             
C 20.13  6.97 54.76                                                             
C 20.13  6.97 69.36                                                             
C 24.16  4.65 10.95                                                             
C 24.16  4.65 25.56                                                             
C 24.16  4.65 40.16                                                             
C 24.16  4.65 54.76                                                             
C 24.16  4.65 69.36                                                             
C 28.18  2.32 10.95                                                             
C 28.18  2.32 25.56                                                             
C 28.18  2.32 40.16                                                             
C 28.18  2.32 54.76                                                             
C 28.18  2.32 69.36                                                             
C 12.08 16.27 10.95                                                             
C 12.08 16.27 25.56                                                             
C 12.08 16.27 40.16                                                             
C 12.08 16.27 54.76                                                             
C 12.08 16.27 69.36                                                             
C 16.10 13.95 10.95                                                             
C 16.10 13.95 25.56                                                             
C 16.10 13.95 40.16                                                             
C 16.10 13.95 54.76                                                             
C 16.10 13.95 69.36                                                             
C 20.13 11.62 10.95                                                             
C 20.13 11.62 25.56                                                             
C 20.13 11.62 40.16                                                             
C 20.13 11.62 54.76                                                             
C 20.13 11.62 69.36                                                             
C 24.16  9.30 10.95                                                             
C 24.16  9.30 25.56                                                             
C 24.16  9.30 40.16                                                             
C 24.16  9.30 54.76                                                             
C 24.16  9.30 69.36                                                             
C 28.18  6.97 10.95                                                             
C 28.18  6.97 25.56                                                             
C 28.18  6.97 40.16                                                             
C 28.18  6.97 54.76                                                             
C 28.18  6.97 69.36                                                             
C 20.13 16.27 10.95                                                             
C 20.13 16.27 25.56                                                             
C 20.13 16.27 40.16                                                             
C 20.13 16.27 54.76                                                             
C 20.13 16.27 69.36                                                             
C 24.16 13.95 10.95                                                             
C 24.16 13.95 25.56                                                             
C 24.16 13.95 40.16                                                             
C 24.16 13.95 54.76                                                             
C 24.16 13.95 69.36                                                             
C 28.18 11.62 10.95                                                             
C 28.18 11.62 25.56                                                             
C 28.18 11.62 40.16                                                             
C 28.18 11.62 54.76                                                             
C 28.18 11.62 69.36                                                             
C 28.18 16.27 10.95                                                             
C 28.18 16.27 25.56                                                             
C 28.18 16.27 40.16                                                             
C 28.18 16.27 54.76                                                             
C 28.18 16.27 69.36                                                             
C  1.34  2.32  3.65                                                             
C  1.34  2.32 18.25                                                             
C  1.34  2.32 32.86                                                             
C  1.34  2.32 47.46                                                             
C  1.34  2.32 62.06                                                             
C  5.37  0.00  3.65                                                             
C  5.37  0.00 18.25                                                             
C  5.37  0.00 32.86                                                             
C  5.37  0.00 47.46                                                             
C  5.37  0.00 62.06                                                             
C  1.34  6.97  3.65                                                             
C  1.34  6.97 18.25                                                             
C  1.34  6.97 32.86                                                             
C  1.34  6.97 47.46                                                             
C  1.34  6.97 62.06                                                             
C  5.37  4.65  3.65                                                             
C  5.37  4.65 18.25                                                             
C  5.37  4.65 32.86                                                             
C  5.37  4.65 47.46                                                             
C  5.37  4.65 62.06                                                             
C  9.39  2.32  3.65                                                             
C  9.39  2.32 18.25                                                             
C  9.39  2.32 32.86                                                             
C  9.39  2.32 47.46                                                             
C  9.39  2.32 62.06                                                             
C 13.42  0.00  3.65                                                             
C 13.42  0.00 18.25                                                             
C 13.42  0.00 32.86                                                             
C 13.42  0.00 47.46                                                             
C 13.42  0.00 62.06                                                             
C  1.34 11.62  3.65                                                             
C  1.34 11.62 18.25                                                             
C  1.34 11.62 32.86                                                             
C  1.34 11.62 47.46                                                             
C  1.34 11.62 62.06                                                             
C  5.37  9.30  3.65                                                             
C  5.37  9.30 18.25                                                             
C  5.37  9.30 32.86                                                             
C  5.37  9.30 47.46                                                             
C  5.37  9.30 62.06                                                             
C  9.39  6.97  3.65                                                             
C  9.39  6.97 18.25                                                             
C  9.39  6.97 32.86                                                             
C  9.39  6.97 47.46                                                             
C  9.39  6.97 62.06                                                             
C 13.42  4.65  3.65                                                             
C 13.42  4.65 18.25                                                             
C 13.42  4.65 32.86                                                             
C 13.42  4.65 47.46                                                             
C 13.42  4.65 62.06                                                             
C 17.45  2.32  3.65                                                             
C 17.45  2.32 18.25                                                             
C 17.45  2.32 32.86                                                             
C 17.45  2.32 47.46                                                             
C 17.45  2.32 62.06                                                             
C 21.47  0.00  3.65                                                             
C 21.47  0.00 18.25                                                             
C 21.47  0.00 32.86                                                             
C 21.47  0.00 47.46                                                             
C 21.47  0.00 62.06                                                             
C  1.34 16.27  3.65                                                             
C  1.34 16.27 18.25                                                             
C  1.34 16.27 32.86                                                             
C  1.34 16.27 47.46                                                             
C  1.34 16.27 62.06                                                             
C  5.37 13.95  3.65                                                             
C  5.37 13.95 18.25                                                             
C  5.37 13.95 32.86                                                             
C  5.37 13.95 47.46                                                             
C  5.37 13.95 62.06                                                             
C  9.39 11.62  3.65                                                             
C  9.39 11.62 18.25                                                             
C  9.39 11.62 32.86                                                             
C  9.39 11.62 47.46                                                             
C  9.39 11.62 62.06                                                             
C 13.42  9.30  3.65                                                             
C 13.42  9.30 18.25                                                             
C 13.42  9.30 32.86                                                             
C 13.42  9.30 47.46                                                             
C 13.42  9.30 62.06                                                             
C 17.45  6.97  3.65                                                             
C 17.45  6.97 18.25                                                             
C 17.45  6.97 32.86                                                             
C 17.45  6.97 47.46                                                             
C 17.45  6.97 62.06                                                             
C 21.47  4.65  3.65                                                             
C 21.47  4.65 18.25                                                             
C 21.47  4.65 32.86                                                             
C 21.47  4.65 47.46                                                             
C 21.47  4.65 62.06                                                             
C 25.50  2.32  3.65                                                             
C 25.50  2.32 18.25                                                             
C 25.50  2.32 32.86                                                             
C 25.50  2.32 47.46                                                             
C 25.50  2.32 62.06                                                             
C 29.52  0.00  3.65                                                             
C 29.52  0.00 18.25                                                             
C 29.52  0.00 32.86                                                             
C 29.52  0.00 47.46                                                             
C 29.52  0.00 62.06                                                             
C  9.39 16.27  3.65                                                             
C  9.39 16.27 18.25                                                             
C  9.39 16.27 32.86                                                             
C  9.39 16.27 47.46                                                             
C  9.39 16.27 62.06                                                             
C 13.42 13.95  3.65                                                             
C 13.42 13.95 18.25                                                             
C 13.42 13.95 32.86                                                             
C 13.42 13.95 47.46                                                             
C 13.42 13.95 62.06                                                             
C 17.45 11.62  3.65                                                             
C 17.45 11.62 18.25                                                             
C 17.45 11.62 32.86                                                             
C 17.45 11.62 47.46                                                             
C 17.45 11.62 62.06                                                             
C 21.47  9.30  3.65                                                             
C 21.47  9.30 18.25                                                             
C 21.47  9.30 32.86                                                             
C 21.47  9.30 47.46                                                             
C 21.47  9.30 62.06                                                             
C 25.50  6.97  3.65                                                             
C 25.50  6.97 18.25                                                             
C 25.50  6.97 32.86                                                             
C 25.50  6.97 47.46                                                             
C 25.50  6.97 62.06                                                             
C 29.52  4.65  3.65                                                             
C 29.52  4.65 18.25                                                             
C 29.52  4.65 32.86                                                             
C 29.52  4.65 47.46                                                             
C 29.52  4.65 62.06                                                             
C 17.45 16.27  3.65                                                             
C 17.45 16.27 18.25                                                             
C 17.45 16.27 32.86                                                             
C 17.45 16.27 47.46                                                             
C 17.45 16.27 62.06                                                             
C 21.47 13.95  3.65                                                             
C 21.47 13.95 18.25                                                             
C 21.47 13.95 32.86                                                             
C 21.47 13.95 47.46                                                             
C 21.47 13.95 62.06                                                             
C 25.50 11.62  3.65                                                             
C 25.50 11.62 18.25                                                             
C 25.50 11.62 32.86                                                             
C 25.50 11.62 47.46                                                             
C 25.50 11.62 62.06                                                             
C 29.52  9.30  3.65                                                             
C 29.52  9.30 18.25                                                             
C 29.52  9.30 32.86                                                             
C 29.52  9.30 47.46                                                             
C 29.52  9.30 62.06                                                             
C 25.50 16.27  3.65                                                             
C 25.50 16.27 18.25                                                             
C 25.50 16.27 32.86                                                             
C 25.50 16.27 47.46                                                             
C 25.50 16.27 62.06                                                             
C 29.52 13.95  3.65                                                             
C 29.52 13.95 18.25                                                             
C 29.52 13.95 32.86                                                             
C 29.52 13.95 47.46                                                             
C 29.52 13.95 62.06                                                             
C  2.68  0.00 10.95                                                             
C  2.68  0.00 25.56                                                             
C  2.68  0.00 40.16                                                             
C  2.68  0.00 54.76                                                             
C  2.68  0.00 69.36                                                             
C  2.68  4.65 10.95                                                             
C  2.68  4.65 25.56                                                             
C  2.68  4.65 40.16                                                             
C  2.68  4.65 54.76                                                             
C  2.68  4.65 69.36                                                             
C  6.71  2.32 10.95                                                             
C  6.71  2.32 25.56                                                             
C  6.71  2.32 40.16                                                             
C  6.71  2.32 54.76                                                             
C  6.71  2.32 69.36                                                             
C 10.74  0.00 10.95                                                             
C 10.74  0.00 25.56                                                             
C 10.74  0.00 40.16                                                             
C 10.74  0.00 54.76                                                             
C 10.74  0.00 69.36                                                             
C  2.68  9.30 10.95                                                             
C  2.68  9.30 25.56                                                             
C  2.68  9.30 40.16                                                             
C  2.68  9.30 54.76                                                             
C  2.68  9.30 69.36                                                             
C  6.71  6.97 10.95                                                             
C  6.71  6.97 25.56                                                             
C  6.71  6.97 40.16                                                             
C  6.71  6.97 54.76                                                             
C  6.71  6.97 69.36                                                             
C 10.74  4.65 10.95                                                             
C 10.74  4.65 25.56                                                             
C 10.74  4.65 40.16                                                             
C 10.74  4.65 54.76                                                             
C 10.74  4.65 69.36                                                             
C 14.76  2.32 10.95                                                             
C 14.76  2.32 25.56                                                             
C 14.76  2.32 40.16                                                             
C 14.76  2.32 54.76                                                             
C 14.76  2.32 69.36                                                             
C 18.79  0.00 10.95                                                             
C 18.79  0.00 25.56                                                             
C 18.79  0.00 40.16                                                             
C 18.79  0.00 54.76                                                             
C 18.79  0.00 69.36                                                             
C  2.68 13.95 10.95                                                             
C  2.68 13.95 25.56                                                             
C  2.68 13.95 40.16                                                             
C  2.68 13.95 54.76                                                             
C  2.68 13.95 69.36                                                             
C  6.71 11.62 10.95                                                             
C  6.71 11.62 25.56                                                             
C  6.71 11.62 40.16                                                             
C  6.71 11.62 54.76                                                             
C  6.71 11.62 69.36                                                             
C 10.74  9.30 10.95                                                             
C 10.74  9.30 25.56                                                             
C 10.74  9.30 40.16                                                             
C 10.74  9.30 54.76                                                             
C 10.74  9.30 69.36                                                             
C 14.76  6.97 10.95                                                             
C 14.76  6.97 25.56                                                             
C 14.76  6.97 40.16                                                             
C 14.76  6.97 54.76                                                             
C 14.76  6.97 69.36                                                             
C 18.79  4.65 10.95                                                             
C 18.79  4.65 25.56                                                             
C 18.79  4.65 40.16                                                             
C 18.79  4.65 54.76                                                             
C 18.79  4.65 69.36                                                             
C 22.81  2.32 10.95                                                             
C 22.81  2.32 25.56                                                             
C 22.81  2.32 40.16                                                             
C 22.81  2.32 54.76                                                             
C 22.81  2.32 69.36                                                             
C 26.84  0.00 10.95                                                             
C 26.84  0.00 25.56                                                             
C 26.84  0.00 40.16                                                             
C 26.84  0.00 54.76                                                             
C 26.84  0.00 69.36                                                             
C  6.71 16.27 10.95                                                             
C  6.71 16.27 25.56                                                             
C  6.71 16.27 40.16                                                             
C  6.71 16.27 54.76                                                             
C  6.71 16.27 69.36                                                             
C 10.74 13.95 10.95                                                             
C 10.74 13.95 25.56                                                             
C 10.74 13.95 40.16                                                             
C 10.74 13.95 54.76                                                             
C 10.74 13.95 69.36                                                             
C 14.76 11.62 10.95                                                             
C 14.76 11.62 25.56                                                             
C 14.76 11.62 40.16                                                             
C 14.76 11.62 54.76                                                             
C 14.76 11.62 69.36                                                             
C 18.79  9.30 10.95                                                             
C 18.79  9.30 25.56                                                             
C 18.79  9.30 40.16                                                             
C 18.79  9.30 54.76                                                             
C 18.79  9.30 69.36                                                             
C 22.81  6.97 10.95                                                             
C 22.81  6.97 25.56                                                             
C 22.81  6.97 40.16                                                             
C 22.81  6.97 54.76                                                             
C 22.81  6.97 69.36                                                             
C 26.84  4.65 10.95                                                             
C 26.84  4.65 25.56                                                             
C 26.84  4.65 40.16                                                             
C 26.84  4.65 54.76                                                             
C 26.84  4.65 69.36                                                             
C 30.86  2.32 10.95                                                             
C 30.86  2.32 25.56                                                             
C 30.86  2.32 40.16                                                             
C 30.86  2.32 54.76                                                             
C 30.86  2.32 69.36                                                             
C 14.76 16.27 10.95                                                             
C 14.76 16.27 25.56                                                             
C 14.76 16.27 40.16                                                             
C 14.76 16.27 54.76                                                             
C 14.76 16.27 69.36                                                             
C 18.79 13.95 10.95                                                             
C 18.79 13.95 25.56                                                             
C 18.79 13.95 40.16                                                             
C 18.79 13.95 54.76                                                             
C 18.79 13.95 69.36                                                             
C 22.81 11.62 10.95                                                             
C 22.81 11.62 25.56                                                             
C 22.81 11.62 40.16                                                             
C 22.81 11.62 54.76                                                             
C 22.81 11.62 69.36                                                             
C 26.84  9.30 10.95                                                             
C 26.84  9.30 25.56                                                             
C 26.84  9.30 40.16                                                             
C 26.84  9.30 54.76                                                             
C 26.84  9.30 69.36                                                             
C 30.86  6.97 10.95                                                             
C 30.86  6.97 25.56                                                             
C 30.86  6.97 40.16                                                             
C 30.86  6.97 54.76                                                             
C 30.86  6.97 69.36                                                             
C 22.81 16.27 10.95                                                             
C 22.81 16.27 25.56                                                             
C 22.81 16.27 40.16                                                             
C 22.81 16.27 54.76                                                             
C 22.81 16.27 69.36                                                             
C 26.84 13.95 10.95                                                             
C 26.84 13.95 25.56                                                             
C 26.84 13.95 40.16                                                             
C 26.84 13.95 54.76                                                             
C 26.84 13.95 69.36                                                             
C 30.86 11.62 10.95                                                             
C 30.86 11.62 25.56                                                             
C 30.86 11.62 40.16                                                             
C 30.86 11.62 54.76                                                             
C 30.86 11.62 69.36                                                             
C 30.86 16.27 10.95                                                             
C 30.86 16.27 25.56                                                             
C 30.86 16.27 40.16                                                             
C 30.86 16.27 54.76                                                             
C 30.86 16.27 69.36                                                             
%ENDBLOCK POSITIONS_ABS                                                         

--------------------------------------------------------------------------------
-------------------------------- END INPUT FILE --------------------------------
--------------------------------------------------------------------------------


 
<<<<<<<<<<<<<<<<<<<<<<<<<<<<<<<<< Full system >>>>>>>>>>>>>>>>>>>>>>>>>>>>>>>>>>
<<<<<<<<<<<<<<<<<<<<<<<<<<< PAW Dataset information >>>>>>>>>>>>>>>>>>>>>>>>>>>
File: ~/pp/paw/c_pbe_abinit.paw; rc = 1.25 bohr; shape type =  3; rshape = 1.25 bohr;
  Atomic number:  6;  ionic charge:  4.000000
    Partial Wave 1: l = 0
    Partial Wave 2: l = 0
    Partial Wave 3: l = 1
    Partial Wave 4: l = 1
  Core charge supplied for Nonlinear Core Corrections
<<<<<<<<<<<<<<<<<<<<<<<<<<<<<<<<<<<<<<< >>>>>>>>>>>>>>>>>>>>>>>>>>>>>>>>>>>>>>>

-------------------------- Atom counting information ---------------------------
Symbol    Natoms    Nngwfs    Nprojs
  C        640      2560      5120
.......   ......    ......    ......
Totals:    640      2560      5120
--------------------------------------------------------------------------------

=============================== PSINC grid sizes ===============================
                      Simulation cell:   63 x  35 x 144
                              FFT-box:   63 x  35 x 117
                                  PPD:    7 x   5 x   1
Grid space d1=  0.511269841270a0 (KE cutoff=  29.06054Eh = 790.77748eV)
Grid space d2=  0.531142857143a0 (KE cutoff=  26.92659Eh = 732.70972eV)
Grid space d3=  0.507083333333a0 (KE cutoff=  29.54237Eh = 803.88878eV)
================================================================================
  
WARNING in cell_grid_distribute:
Average of less than one 23-slab per node, so workload cannot be
equally balanced between nodes.

********************* Fourier parallelisation information **********************
       Coarse grid (whole simulation cell) dimensions:     63    35   144
          Real-space ('12') slabs/node (min max mean):      3     4     3
         Recip-space ('23') slabs/node (min max mean):      0     1     0
********************************************************************************

********************* Fourier parallelisation information **********************
       Double grid (whole simulation cell) dimensions:    126    70   288
          Real-space ('12') slabs/node (min max mean):      7     8     7
         Recip-space ('23') slabs/node (min max mean):      1     2     1
********************************************************************************

Atom SCF Calculation for C  : Z (AE atom) =   6 : Z (PS atom) =   4
Config String: 2s2 2p2
Orbitals (num,occ):  2     2.00 2.00
Orbitals   (num,l):  2        0    1
Real-space Grid (nr,dr,rmax): 1293    0.0069659443    9.0000000000
Spherical Bessel Basis (nsws,lmax,cutoff):   37    2  161.4736382572
Confining potential (l,width,scale):  0    3.0000000000  100.0000000000
Confining potential (l,width,scale):  1    3.0000000000  100.0000000000
  1         -5.4795203654   -1.3252209296    4.5135257941   -1.6370402169
  2         -5.4480859746   -1.4027979239    4.4305951748   -1.6109819005
  3         -5.4553164790   -1.4212834043    4.4102618304   -1.6059039466
  4         -5.4627841133   -1.4247091338    4.4065122085   -1.6052907585
  5         -5.4662306655   -1.4266814823    4.4043715292   -1.6049352647
  6         -5.4679520247   -1.4277352742    4.4032348712   -1.6047493439
  7         -5.4688359568   -1.4282868030    4.4026432892   -1.6046541449
  8         -5.4692951245   -1.4285734530    4.4023374832   -1.6046056242
  9         -5.4695349887   -1.4287220785    4.4021797781   -1.6045809101
 10         -5.4696606791   -1.4287991022    4.4020984905   -1.6045683155
 11         -5.4697266650   -1.4288390363    4.4020565747   -1.6045618912
 12         -5.4697613504   -1.4288597596    4.4020349416   -1.6045586107
 13         -5.4697795998   -1.4288705262    4.4020237638   -1.6045569335
 14         -5.4697892089   -1.4288761271    4.4020179806   -1.6045560749
 15         -5.4697942720   -1.4288790448    4.4020149844   -1.6045556348
 16         -5.4697969415   -1.4288805668    4.4020134298   -1.6045554088
 17         -5.4697983498   -1.4288813619    4.4020126220   -1.6045552927
 18         -5.4697990933   -1.4288817779    4.4020122017   -1.6045552329
 19         -5.4697994860   -1.4288819957    4.4020119826   -1.6045552021
 20         -5.4697996936   -1.4288821100    4.4020118683   -1.6045551862
 21         -5.4697998034   -1.4288821701    4.4020118085   -1.6045551780
 22         -5.4697998614   -1.4288822017    4.4020117772   -1.6045551737
Atom SCF converged after  22 iterations to a total energy of     -5.46979986

Determining parallel strategy ...
... using space-filling curve
... NGWF load balancing: max     64;  min     64;  average     64
... Projector load balancing: max    128;  min    128;  average    128
... done
Calculating Ewald energy ...
              Ewald: real-space energy =    9490.867672
        Ewald: reciprocal-space energy =       0.535212
         Ewald: (sum_charge)**2 Energy =   10793.259758
         Ewald: (sum_charge**2) Energy =     853.282105
                          Ewald Energy =   -2155.138980
Basis initialisation ...... NGWF spheres initialised
... Projector spheres initialised
... NGWF tight boxes initialised
... Projector tight boxes initialised
... Tight-boxes gathered
... NGWF basis size (local,global):     692628  27897056
... PAW projector initialisation
... done

============================= Charge Augmentation ==============================
                           Aug box size:   11 x  11 x  11
================================================================================

========================== Sparse matrix information ===========================
                        Overlap matrix filling:  40.31%
                        Density kernel filling: 100.00%
              NGWF-Proj overlap matrix filling:  12.19%
                    Aug Overlap matrix filling:  47.03%
                    Hamiltonian matrix filling:  47.03%
                  NGWF diagonal matrix filling:   0.16%
                             KS matrix filling: 100.00% 
                           KSKS matrix filling: 100.00% 
================================================================================

Sparse matrix initialisation ... done
NGWF initialisation ...... done
============ Calculation of NGWF S^-1 using Hotelling algorithm ================ 
         Iteration  |  Frobenius norm and Maximum abs value    (of I-S*S_n^-1)   
               1       0.48920076E+02     0.97414711E+00
               2       0.47603166E+02     0.95018256E+00
               3       0.45663279E+02     0.90706793E+00
               4       0.43193256E+02     0.83570727E+00
               5       0.40262115E+02     0.73104512E+00
               6       0.36897058E+02     0.67215711E+00
               7       0.33448159E+02     0.62570123E+00
               8       0.30145089E+02     0.58610064E+00
               9       0.26516612E+02     0.54008573E+00
              10       0.21864105E+02     0.46644379E+00
              11       0.15834658E+02     0.35132647E+00
              12       0.90581950E+01     0.20468825E+00
              13       0.34177582E+01     0.74746991E-01
              14       0.58468406E+00     0.11588574E-01
              15       0.20640710E-01     0.34647458E-03
              16       0.34493923E-04     0.41251463E-06
              17       0.14798128E-09     0.10560441E-11
              18       0.68427437E-13     0.42188475E-14
================================================================================
Calculating core density ...
================================= Core Density =================================
               Core den box size:   21 x  21 x  21
================================================================================
 ... done
Up spin density kernel initialisation ...... done

Writing density kernel to file "3.8637928_GO_manual_4x64graphite.dkn" ... done

>>> Optimising kernel for current NGWFs:

--------------------------- Ensemble-DFT optimisation --------------------------
Running ScaLAPACK on   40 processor(s).

--------------------------------------------------------------------------------
  Iter                              Commutator    Free_energy(A=E-TS)     DeltaA
#    0                          0.000034952811   -3648.25989266186843  -3.65E+03

Step                       =       0.381966011250
Energy                     =   -3648.259867704705
Entropy (-TS)              =      -0.000024957422
Free energy (A=E-TS)       =   -3648.259892661868
Est. 0K Energy 0.5*(E+A)   =   -3648.259880183287
Residual Non-orthogonality =       0.000000000000
Residual N_electrons       =       0.000000000259

Spin          Integrated_Ne            Fermi_level     Delta_Fermi_level
   1      2559.999999998238         0.146845694287              1.47E-01

                           Spin 1          
     Orb      H-eigenvalues     Occupancies
       1 |    -0.5761729648    1.0000000000 | 
                          ------
    1276 |     0.1111080172    0.9999874411 | 
    1277 |     0.1116568781    0.9999850644 | 
    1278 |     0.1117265647    0.9999847321 | 
    1279 |     0.1117375727    0.9999846790 | 
    1280 |     0.1122875802    0.9999817730 | 
                 - Gap at zero temperature -
    1281 |     0.1834253595    0.0000096268 | 
    1282 |     0.1834303336    0.0000096117 | 
    1283 |     0.1834447393    0.0000095681 | 
    1284 |     0.1835255614    0.0000093270 | 
    1285 |     0.1835374969    0.0000092919 | 
                          ------
    2560 |     0.9810178350    0.0000000000 | 

                       |  Abs_value |  Threshold | Converged
     Delta_Free_energy |   3.65E+03 |   1.00E-06 |        No
     Delta_Energy      |   3.65E+03 |   1.00E-04 |        No
     Delta_Entropy     |   2.50E-05 |   1.00E-04 |       Yes
     Commutator        |   3.50E-05 |   1.00E-05 |        No
     Delta_Fermi_level |   1.47E-01 |   1.00E-03 |        No

  Line search of the free energy minimum:
  Step_type        Step             Free_energy   Predicted_free_energy
.   Initial    0.000000    -3648.25989266186843
.    Trial1    0.381966    -3648.26123694861872
.    Trial2    0.618034    -3648.26152016489505
. Quadratic    0.659823    -3648.26152686697969    -3648.26152671923592

--------------------------------------------------------------------------------
  Iter                              Commutator    Free_energy(A=E-TS)     DeltaA
#    1                          0.000019224932   -3648.26152686697969  -1.63E-03

Step                       =       0.659822611524
Energy                     =   -3648.261501879657
Entropy (-TS)              =      -0.000024987361
Free energy (A=E-TS)       =   -3648.261526866980
Est. 0K Energy 0.5*(E+A)   =   -3648.261514373318
Residual Non-orthogonality =       0.000000000000
Residual N_electrons       =       0.000000000038

Spin          Integrated_Ne            Fermi_level     Delta_Fermi_level
   1      2559.999999999735         0.144576675067             -2.27E-03

                           Spin 1          
     Orb      H-eigenvalues     Occupancies
       1 |    -0.5805970482    1.0000000000 | 
                          ------
    1276 |     0.1089104620    0.9999871544 | 
    1277 |     0.1093500009    0.9999852419 | 
    1278 |     0.1093702300    0.9999851473 | 
    1279 |     0.1094439120    0.9999847977 | 
    1280 |     0.1099044850    0.9999824179 | 
                 - Gap at zero temperature -
    1281 |     0.1810619192    0.0000099182 | 
    1282 |     0.1810797983    0.0000098624 | 
    1283 |     0.1810965626    0.0000098103 | 
    1284 |     0.1811902353    0.0000095244 | 
    1285 |     0.1811939028    0.0000095133 | 
                          ------
    2560 |     0.9771138785    0.0000000000 | 

                       |  Abs_value |  Threshold | Converged
     Delta_Free_energy |   1.63E-03 |   1.00E-06 |        No
     Delta_Energy      |   1.63E-03 |   1.00E-04 |        No
     Delta_Entropy     |   2.99E-08 |   1.00E-04 |       Yes
     Commutator        |   1.92E-05 |   1.00E-05 |        No
     Delta_Fermi_level |   2.27E-03 |   1.00E-03 |        No

  Line search of the free energy minimum:
  Step_type        Step             Free_energy   Predicted_free_energy
.   Initial    0.000000    -3648.26152686697969
.    Trial1    0.659823    -3648.26089288030607
.    Trial2    0.252030    -3648.26187804078063
. Quadratic    0.246694    -3648.26187821032408    -3648.26187820515361

--------------------------------------------------------------------------------
  Iter                              Commutator    Free_energy(A=E-TS)     DeltaA
#    2                          0.000009253919   -3648.26187821032408  -3.51E-04

Step                       =       0.246693871603
Energy                     =   -3648.261853225840
Entropy (-TS)              =      -0.000024984466
Free energy (A=E-TS)       =   -3648.261878210324
Est. 0K Energy 0.5*(E+A)   =   -3648.261865718082
Residual Non-orthogonality =       0.000000000000
Residual N_electrons       =      -0.000000000018

Spin          Integrated_Ne            Fermi_level     Delta_Fermi_level
   1      2560.000000000126         0.144293004855             -2.84E-04

                           Spin 1          
     Orb      H-eigenvalues     Occupancies
       1 |    -0.5811594579    1.0000000000 | 
                          ------
    1276 |     0.1085896240    0.9999873043 | 
    1277 |     0.1090898729    0.9999851318 | 
    1278 |     0.1091098958    0.9999850375 | 
    1279 |     0.1091214609    0.9999849827 | 
    1280 |     0.1096426414    0.9999822963 | 
                 - Gap at zero temperature -
    1281 |     0.1808042551    0.0000098371 | 
    1282 |     0.1808216168    0.0000097833 | 
    1283 |     0.1808388934    0.0000097301 | 
    1284 |     0.1809342922    0.0000094413 | 
    1285 |     0.1809378086    0.0000094309 | 
                          ------
    2560 |     0.9766124333    0.0000000000 | 

                       |  Abs_value |  Threshold | Converged
     Delta_Free_energy |   3.51E-04 |   1.00E-06 |        No
     Delta_Energy      |   3.51E-04 |   1.00E-04 |        No
     Delta_Entropy     |   2.90E-09 |   1.00E-04 |       Yes
     Commutator        |   9.25E-06 |   1.00E-05 |       Yes
     Delta_Fermi_level |   2.84E-04 |   1.00E-03 |       Yes

  Line search of the free energy minimum:
  Step_type        Step             Free_energy   Predicted_free_energy
.   Initial    0.000000    -3648.26187821032408
.    Trial1    0.246694    -3648.26195014046561
.    Trial2    0.534431    -3648.26196281464854
. Quadratic    0.438114    -3648.26196710672639    -3648.26196711145303

--------------------------------------------------------------------------------
  Iter                              Commutator    Free_energy(A=E-TS)     DeltaA
#    3                          0.000006096736   -3648.26196710672639  -8.89E-05

Step                       =       0.438113564836
Energy                     =   -3648.261942130652
Entropy (-TS)              =      -0.000024975786
Free energy (A=E-TS)       =   -3648.261967106726
Est. 0K Energy 0.5*(E+A)   =   -3648.261954618689
Residual Non-orthogonality =       0.000000000000
Residual N_electrons       =      -0.000000000289

Spin          Integrated_Ne            Fermi_level     Delta_Fermi_level
   1      2560.000000002011         0.143910973142             -3.82E-04

                           Spin 1          
     Orb      H-eigenvalues     Occupancies
       1 |    -0.5819019387    1.0000000000 | 
                          ------
    1276 |     0.1081839542    0.9999873987 | 
    1277 |     0.1087138126    0.9999851037 | 
    1278 |     0.1087159350    0.9999850937 | 
    1279 |     0.1087357457    0.9999850002 | 
    1280 |     0.1092665666    0.9999822630 | 
                 - Gap at zero temperature -
    1281 |     0.1804365023    0.0000097928 | 
    1282 |     0.1804533296    0.0000097409 | 
    1283 |     0.1804711175    0.0000096864 | 
    1284 |     0.1805682855    0.0000093937 | 
    1285 |     0.1805715976    0.0000093839 | 
                          ------
    2560 |     0.9759650534    0.0000000000 | 

                       |  Abs_value |  Threshold | Converged
     Delta_Free_energy |   8.89E-05 |   1.00E-06 |        No
     Delta_Energy      |   8.89E-05 |   1.00E-04 |       Yes
     Delta_Entropy     |   8.68E-09 |   1.00E-04 |       Yes
     Commutator        |   6.10E-06 |   1.00E-05 |       Yes
     Delta_Fermi_level |   3.82E-04 |   1.00E-03 |       Yes

  Line search of the free energy minimum:
  Step_type        Step             Free_energy   Predicted_free_energy
.   Initial    0.000000    -3648.26196710672639
.    Trial1    0.438114    -3648.26198576537763
.    Trial2    0.652735    -3648.26192711487238
. Quadratic    0.263062    -3648.26200059942721    -3648.26200059378289

--------------------------------------------------------------------------------
  Iter                              Commutator    Free_energy(A=E-TS)     DeltaA
#    4                          0.000003707041   -3648.26200059942721  -3.35E-05

Step                       =       0.263061792523
Energy                     =   -3648.261975628443
[...]
 C   275 -- C   555       -0.10      5.37000
 C   274 -- C   554       -0.10      5.37000
 C   273 -- C   553       -0.10      5.37000
 C   272 -- C   552       -0.10      5.37000
 C   271 -- C   551       -0.10      5.37000
 C   270 -- C   550       -0.10      5.37000
 C   269 -- C   549       -0.10      5.37000
 C   268 -- C   548       -0.10      5.37000
 C   267 -- C   547       -0.10      5.37000
 C   266 -- C   546       -0.10      5.37000
 C   130 -- C   465       -0.10      5.37000
 C   129 -- C   464       -0.10      5.37000
 C   128 -- C   463       -0.10      5.37000
 C   127 -- C   462       -0.10      5.37000
 C   126 -- C   461       -0.10      5.37000
 C   240 -- C   525       -0.10      5.37000
 C   239 -- C   524       -0.10      5.37000
 C   238 -- C   523       -0.10      5.37000
 C   237 -- C   522       -0.10      5.37000
 C   236 -- C   521       -0.10      5.37000
 C    23 -- C   478       -0.10      5.37202
 C    49 -- C   469       -0.10      5.37202
 C    48 -- C   468       -0.10      5.37202
 C    47 -- C   467       -0.10      5.37202
 C    22 -- C   477       -0.10      5.37202
 C    46 -- C   466       -0.10      5.37202
 C    21 -- C   476       -0.10      5.37202
 C    25 -- C   480       -0.10      5.37202
 C    24 -- C   479       -0.10      5.37202
 C    50 -- C   470       -0.10      5.37202
 C    24 -- C   449       -0.10      5.37202
 C     6 -- C   416       -0.10      5.37202
 C    23 -- C   448       -0.10      5.37202
 C    22 -- C   447       -0.10      5.37202
 C    10 -- C   470       -0.10      5.37202
 C     5 -- C   450       -0.10      5.37202
 C    21 -- C   446       -0.10      5.37202
 C    10 -- C   420       -0.10      5.37202
 C     9 -- C   469       -0.10      5.37202
 C     9 -- C   419       -0.10      5.37202
 C     8 -- C   468       -0.10      5.37202
 C     4 -- C   449       -0.10      5.37202
 C     8 -- C   418       -0.10      5.37202
 C   285 -- C   580       -0.10      5.37202
 C   284 -- C   579       -0.10      5.37202
 C   283 -- C   578       -0.10      5.37202
 C   282 -- C   577       -0.10      5.37202
 C   281 -- C   576       -0.10      5.37202
 C     2 -- C   447       -0.10      5.37202
 C     7 -- C   467       -0.10      5.37202
 C   260 -- C   605       -0.10      5.37202
 C   259 -- C   604       -0.10      5.37202
 C   258 -- C   603       -0.10      5.37202
 C   257 -- C   602       -0.10      5.37202
 C   256 -- C   601       -0.10      5.37202
 C     7 -- C   417       -0.10      5.37202
 C     1 -- C   446       -0.10      5.37202
 C     6 -- C   466       -0.10      5.37202
 C    25 -- C   450       -0.10      5.37202
 C     3 -- C   448       -0.10      5.37202
 C   219 -- C   569       -0.10      5.37202
 C   218 -- C   568       -0.10      5.37202
 C   217 -- C   567       -0.10      5.37202
 C   216 -- C   566       -0.10      5.37202
 C   250 -- C   540       -0.10      5.37202
 C   249 -- C   539       -0.10      5.37202
 C   248 -- C   538       -0.10      5.37202
 C   247 -- C   537       -0.10      5.37202
 C   246 -- C   536       -0.10      5.37202
 C   220 -- C   570       -0.10      5.37202
 C   205 -- C   550       -0.10      5.37202
 C   204 -- C   549       -0.10      5.37202
 C   203 -- C   548       -0.10      5.37202
 C   202 -- C   547       -0.10      5.37202
 C   201 -- C   546       -0.10      5.37202
 C    95 -- C   365       -0.10      5.37202
 C    94 -- C   364       -0.10      5.37202
 C    93 -- C   363       -0.10      5.37202
 C    92 -- C   362       -0.10      5.37202
 C    91 -- C   361       -0.10      5.37202
 C    65 -- C   395       -0.10      5.37202
 C    64 -- C   394       -0.10      5.37202
 C    63 -- C   393       -0.10      5.37202
 C    30 -- C   355       -0.10      5.37202
 C    62 -- C   392       -0.10      5.37202
 C    61 -- C   391       -0.10      5.37202
 C    29 -- C   354       -0.10      5.37202
 C   260 -- C   550       -0.10      5.37202
 C   259 -- C   549       -0.10      5.37202
 C    28 -- C   353       -0.10      5.37202
 C   258 -- C   548       -0.10      5.37202
 C   257 -- C   547       -0.10      5.37202
 C   256 -- C   546       -0.10      5.37202
 C    27 -- C   352       -0.10      5.37202
 C    26 -- C   351       -0.10      5.37202
 C    55 -- C   335       -0.10      5.37202
 C    54 -- C   334       -0.10      5.37202
 C    53 -- C   333       -0.10      5.37202
 C   230 -- C   580       -0.10      5.37202
 C   230 -- C   525       -0.10      5.37202
 C   229 -- C   579       -0.10      5.37202
 C   229 -- C   524       -0.10      5.37202
 C   228 -- C   578       -0.10      5.37202
 C    52 -- C   332       -0.10      5.37202
 C   228 -- C   523       -0.10      5.37202
 C   227 -- C   577       -0.10      5.37202
 C   227 -- C   522       -0.10      5.37202
 C   226 -- C   576       -0.10      5.37202
 C   226 -- C   521       -0.10      5.37202
 C    51 -- C   331       -0.10      5.37202
 C   220 -- C   515       -0.10      5.37202
 C   219 -- C   514       -0.10      5.37202
 C   218 -- C   513       -0.10      5.37202
 C   217 -- C   512       -0.10      5.37202
 C   216 -- C   511       -0.10      5.37202
 C   195 -- C   540       -0.10      5.37202
 C   195 -- C   500       -0.10      5.37202
 C   194 -- C   539       -0.10      5.37202
 C   194 -- C   499       -0.10      5.37202
 C   193 -- C   538       -0.10      5.37202
 C   193 -- C   498       -0.10      5.37202
 C   192 -- C   537       -0.10      5.37202
 C   192 -- C   497       -0.10      5.37202
 C   191 -- C   536       -0.10      5.37202
 C   191 -- C   496       -0.10      5.37202
 C   180 -- C   515       -0.10      5.37202
 C   179 -- C   514       -0.10      5.37202
 C   178 -- C   513       -0.10      5.37202
 C   177 -- C   512       -0.10      5.37202
 C   176 -- C   511       -0.10      5.37202
 C   150 -- C   440       -0.10      5.37202
 C   149 -- C   439       -0.10      5.37202
 C   148 -- C   438       -0.10      5.37202
 C   147 -- C   437       -0.10      5.37202
 C   146 -- C   436       -0.10      5.37202
 C   135 -- C   460       -0.10      5.37202
 C   134 -- C   459       -0.10      5.37202
 C   133 -- C   458       -0.10      5.37202
 C   132 -- C   457       -0.10      5.37202
 C   131 -- C   456       -0.10      5.37202
 C    11 -- C   331       -0.10      5.37202
 C    95 -- C   425       -0.10      5.37202
 C    94 -- C   424       -0.10      5.37202
 C    93 -- C   423       -0.10      5.37202
 C    92 -- C   422       -0.10      5.37202
 C    91 -- C   421       -0.10      5.37202
 C    85 -- C   355       -0.10      5.37202
 C    40 -- C   365       -0.10      5.37202
 C    84 -- C   354       -0.10      5.37202
 C    83 -- C   353       -0.10      5.37202
 C    82 -- C   352       -0.10      5.37202
 C    39 -- C   364       -0.10      5.37202
 C    81 -- C   351       -0.10      5.37202
 C    38 -- C   363       -0.10      5.37202
 C    37 -- C   362       -0.10      5.37202
 C    36 -- C   361       -0.10      5.37202
 C    15 -- C   335       -0.10      5.37202
 C    65 -- C   345       -0.10      5.37202
 C    64 -- C   344       -0.10      5.37202
 C    63 -- C   343       -0.10      5.37202
 C    30 -- C   325       -0.10      5.37202
 C    62 -- C   342       -0.10      5.37202
 C    14 -- C   334       -0.10      5.37202
 C    61 -- C   341       -0.10      5.37202
 C    29 -- C   324       -0.10      5.37202
 C    28 -- C   323       -0.10      5.37202
 C    13 -- C   333       -0.10      5.37202
 C    27 -- C   322       -0.10      5.37202
 C   120 -- C   395       -0.10      5.37202
 C    55 -- C   385       -0.10      5.37202
 C   119 -- C   394       -0.10      5.37202
 C   118 -- C   393       -0.10      5.37202
 C   117 -- C   392       -0.10      5.37202
 C    54 -- C   384       -0.10      5.37202
 C    26 -- C   321       -0.10      5.37202
 C   116 -- C   391       -0.10      5.37202
 C    53 -- C   383       -0.10      5.37202
 C    12 -- C   332       -0.10      5.37202
 C    52 -- C   382       -0.10      5.37202
 C    51 -- C   381       -0.10      5.37202
 C   106 -- C   436       -0.10      5.37202
 C   106 -- C   376       -0.10      5.37202
 C    80 -- C   410       -0.10      5.37202
 C    79 -- C   409       -0.10      5.37202
 C    78 -- C   408       -0.10      5.37202
 C    77 -- C   407       -0.10      5.37202
 C    76 -- C   406       -0.10      5.37202
 C   135 -- C   410       -0.10      5.37202
 C   134 -- C   409       -0.10      5.37202
 C   133 -- C   408       -0.10      5.37202
 C   132 -- C   407       -0.10      5.37202
 C   131 -- C   406       -0.10      5.37202
 C   110 -- C   440       -0.10      5.37202
 C   110 -- C   380       -0.10      5.37202
 C   109 -- C   439       -0.10      5.37202
 C   109 -- C   379       -0.10      5.37202
 C   108 -- C   438       -0.10      5.37202
 C   108 -- C   378       -0.10      5.37202
 C   107 -- C   437       -0.10      5.37202
 C   107 -- C   377       -0.10      5.37202
 C   215 -- C   635       -0.10      5.38000
 C   214 -- C   634       -0.10      5.38000
 C   213 -- C   633       -0.10      5.38000
 C   212 -- C   632       -0.10      5.38000
 C   211 -- C   631       -0.10      5.38000
 C   190 -- C   620       -0.10      5.38000
 C   189 -- C   619       -0.10      5.38000
 C   188 -- C   618       -0.10      5.38000
 C   187 -- C   617       -0.10      5.38000
 C   186 -- C   616       -0.10      5.38000
 C   175 -- C   595       -0.10      5.38000
 C   174 -- C   594       -0.10      5.38000
 C   173 -- C   593       -0.10      5.38000
 C   172 -- C   592       -0.10      5.38000
 C   171 -- C   591       -0.10      5.38000
 C   245 -- C   640       -0.10      5.38000
 C   244 -- C   639       -0.10      5.38000
 C   243 -- C   638       -0.10      5.38000
 C   242 -- C   637       -0.10      5.38000
 C   241 -- C   636       -0.10      5.38000
==================================================


=================== Orbital energy and occupancy information ===================

      Total number of orbitals:    2560
        Occupancy sum (kernel):    1279.999999999
   Occupancy sum (eigenvalues):    1279.999999999
                 HOMO-LUMO gap:       0.067699224 Eh
                 Mid-gap level:       0.203957828 Eh

                        Orbital | Energy (Eh) | Occupancy
                            1    -0.516371592   1.0000000
                        .......   ...........   .........
                         1271     0.166456491   0.9999890
                         1272     0.166472886   0.9999890
                         1273     0.166927597   0.9999873
                         1274     0.166944061   0.9999872
                         1275     0.168824892   0.9999769
                         1276     0.168829877   0.9999768
                         1277     0.169296062   0.9999731
                         1278     0.169300982   0.9999731
                         1279     0.169638169   0.9999701
                         1280     0.170108216   0.9999653
                        ....... -- gap at 0K -- .........
                         1281     0.237807440   0.0000149
                         1282     0.237811151   0.0000149
                         1283     0.238040703   0.0000139
                         1284     0.238051771   0.0000138
                         1285     0.238056053   0.0000138
                         1286     0.238059989   0.0000138
                         1287     0.238215827   0.0000132
                         1288     0.238298083   0.0000128
                         1289     0.238309062   0.0000128
                         1290     0.238387111   0.0000124
                        .......   ...........   .........
                         2560     1.098370426   0.0000000

================================================================================

===================== Writing canonical molecular orbitals =====================
| Orbital  Energy (eV)  Norm     |
| HOMO      4.62888009  1.000000 | Writing "3.8637928_GO_manual_4x64graphite_HOMO.cube" ... done
Writing "3.8637928_GO_manual_4x64graphite_HOMO.dx" ... done
| LUMO      6.47106970  1.000000 | Writing "3.8637928_GO_manual_4x64graphite_LUMO.cube" ... done
Writing "3.8637928_GO_manual_4x64graphite_LUMO.dx" ... done
================================================================================
 
===================== Density of States (DOS) calculation ======================
Writing "3.8637928_GO_manual_4x64graphite_DOS.txt" ...  done
================================================================================
 
Writing bands to file "3.8637928_GO_manual_4x64graphite.val_bands" ... done
 
================ Projected Density of States (pDOS) calculation ================
 
Constructing AM resolved functions  ...... done
Writing NGWF plot files in formats: CUBE DX ...  done
 
Performing overlap integrals ...  done
 
Computing pDOS weights ...  done
 
All bands spilling parameter =   2.96 %
Occupancy-weighted spilling parameter =   0.96 %
 
 => Outputting data for OptaDOS <=
 
Writing pDOS weights to file "3.8637928_GO_manual_4x64graphite.val_pdos_bin" ... done
 
Writing band gradients to file "3.8637928_GO_manual_4x64graphite.val_dome_bin" ... done
 
Writing Castep output cell file to "3.8637928_GO_manual_4x64graphite-out.cell" ... done
 
 => Computing Gaussian smeared pDOS <= 
Writing "3.8637928_GO_manual_4x64graphite_PDOS.txt" ...  done
 
 => Computing Occupancy-weighted Gaussian smeared pDOS <= 
Writing "3.8637928_GO_manual_4x64graphite_occ_PDOS.txt" ...  done
  => Band centres: 
 S band centre of group 1:  -13.768675 eV
 P band centre of group 1:   -6.646504 eV
  Band centres done. <=
  => Integrated number of electrons in each AM band: 
 S num electrons of group 1:  575.412058
 P num electrons of group 1: 1960.128658
  Integrated number of electrons done. <=
================================================================================

------------------------------ TIMING INFORMATION ------------------------------
AVERAGE TIME:    3084.356s on     40 node(s)                                    
TOTAL TIME:      3084.357s on     40 node(s)                                    
================= AVERAGE TIMINGS FROM ALL NODES (CUMULATIVE) ==================
|| TAG                                    #calls    cpu time   %total  Gflops ||
|| work_imbalance                       :     1        0.00s   0.000%  ------ ||
|| paw_tcore_hartree_on_grid            :     1        0.00s   0.000%  ------ ||
|| paw_tcore_density                    :     1        0.01s   0.000%  ------ ||
|| paw_sphere_density_on_grid           :     1        0.01s   0.000%  ------ ||
|| sparse_set_to_garbage                :   135        0.02s   0.001%  ------ ||
|| paw_dij_hartree                      :   278        0.04s   0.001%  ------ ||
|| pseudo_make_structure_factor         :     1        0.06s   0.002%  ------ ||
|| basis_extract_function_from_box      :  1536        0.06s   0.002%  ------ ||
|| paw_species_calc_proj_prec_mat       :     1        0.12s   0.004%  ------ ||
|| paw_dataset_init                     :     1        0.15s   0.005%  ------ ||
|| density_init_guess_real              :     1        0.17s   0.005%  ------ ||
|| ngwfs_initialise_from_radial         :     2        0.66s   0.022%  ------ ||
|| restart_kernel_write                 :    13        0.67s   0.022%  ------ ||
|| sparse_init                          :     1        0.87s   0.028%  ------ ||
|| dense_normal_eigensolve              :     1        1.01s   0.033%  ------ ||
|| hartree_on_grid                      :   209        1.10s   0.036%  ------ ||
|| projectors_init_fftbox_recip         :   121        2.42s   0.079%  ------ ||
|| ewald_calculate_energy               :     1        3.66s   0.119%  ------ ||
|| fourier_apply_box_pair               :  2272        3.80s   0.123% 555.022 ||
|| basis_copy_function_to_box           : 19904        4.17s   0.135%  ------ ||
|| augmentation_screen_dij              :   214        4.78s   0.155%  ------ ||
|| sparse_embed_hotelling_invert_embed  :    23        6.48s   0.210%  ------ ||
|| sw_init                              :     1        6.74s   0.219%  ------ ||
|| ngwf_gradient_coeffs                 :    12        8.27s   0.268%  ------ ||
|| sparse_trace                         :  2516       11.13s   0.361%  ------ ||
|| fourier_apply_cell_backward          :  6450       12.93s   0.419%  68.099 ||
|| fourier_apply_cell_forward           :  6033       13.54s   0.439%  60.841 ||
|| cell_grid_extract_box_real           :  8428       16.34s   0.530%  ------ ||
|| paw_dij_xc                           :   278       18.54s   0.601%  ------ ||
|| cell_grid_deposit_box_real           : 26928       18.82s   0.610%  ------ ||
|| aug_nonlocal_mat                     :   266       27.02s   0.876%  ------ ||
|| augmentation_density_on_grid         :   209       35.63s   1.155%  ------ ||
|| density_fftbox_deposit_to_cell       : 13376       39.54s   1.282%  ------ ||
|| hamiltonian_energy_components        :     3       46.65s   1.512%  ------ ||
|| function_ops_brappd_ketppd           :    48       48.57s   1.575%  ------ ||
|| projectors_func_ovlp_box             :    24       53.00s   1.718%  ------ ||
|| eigenstates_pdos                     :     1       54.18s   1.757%  ------ ||
|| nlxc_vdw_energy                      :   416       57.71s   1.871%  ------ ||
|| eigenstates_calculate                :     1       58.65s   1.902%  ------ ||
|| xc_energy_potential                  :   208       64.44s   2.089%  ------ ||
|| integrals_kinetic                    :    23       75.85s   2.459%  ------ ||
|| dense_eigensolve                     :   182       93.09s   3.018%  ------ ||
|| sparse_product                       :  2554       99.37s   3.222%  ------ ||
|| potential_apply_to_ngwf_batch        :   264      103.66s   3.361%  ------ ||
|| properties_calculate                 :     1      107.24s   3.477%  ------ ||
|| restart_ngwfs_tightbox_output        :    11      122.75s   3.980%  ------ ||
|| basis_dot_function_with_box          : 6.078M     166.85s   5.409%  ------ ||
|| fourier_apply_box                    : 62736      195.53s   6.339% 974.717 ||
|| edft_diag_ngwf_ham                   :   181      204.23s   6.621%  ------ ||
|| projectors_gradient_batch            :    48      215.92s   7.001%  ------ ||
|| integrals_locpot_mat_els_batch       :   264      223.21s   7.237%  ------ ||
|| density_fftbox_interpolate_multiply  : 13376      257.28s   8.342%  ------ ||
|| projectors_grad_precond_batch        :    48      302.50s   9.808%  ------ ||
|| density_batch_interp_deposit         :   836      327.41s  10.615%  ------ ||
|| integrals_locpot_dbl_grid            :    66      328.01s  10.635%  ------ ||
|| edft_apply_smearing_operator         :   181      396.33s  12.850%  ------ ||
|| basis_add_function_to_box            : 16.97M     451.26s  14.630%  ------ ||
|| ngwf_gradient_build_batch            :    48      555.24s  18.002%  ------ ||
|| density_batch_row_sums               :   836      637.19s  20.659%  ------ ||
|| ngwf_gradient_batch                  :    48      738.69s  23.949%  ------ ||
|| ngwf_gradient_lnv                    :    12      765.58s  24.821%  ------ ||
|| density_on_dbl_grid                  :   209      976.52s  31.661%  ------ ||
|| hamiltonian_lhxc_calculate           :   204     1053.19s  34.146%  ------ ||
|| edft_calculate                       :    12     1755.33s  56.911%  ------ ||
|| ngwf_cg_optimise                     :     1     2950.76s  95.669%  ------ ||
|| total_time                           :     1     3084.36s 100.000%  ------ ||
================================================================================
Overhead of generating timer report: 
- 0 ms averaging over threads,
- 5 ms ensuring consistency across MPI ranks,
- 0 ms printing in order.

Job completed: 29-02-2020 11:22 (-0000)

