 +---------------------------------------------------------------+
 |                                                               |
 |        ####### #     # ####### ####### ####### ######         |
 |        #     # ##    # #          #    #       #     #        |
 |        #     # # #   # #          #    #       #     #        |
 |        #     # #  #  # #####      #    #####   ######         |
 |        #     # #   # # #          #    #       #              |
 |        #     # #    ## #          #    #       #              |
 |        ####### #     # #######    #    ####### #              |
 |                                                               |
 |        Linear-Scaling Ab Initio Total Energy Program          |
 |                                                               |
 |          Release for academic collaborators of ODG            |
 |                                             Version 5.3.2.12  |
 |                                                               |
 +---------------------------------------------------------------+
 |                                                               |
 |  Authors:                                                     |
 |  Jacek Dziedzic, Peter D. Haynes, Nicholas D. M. Hine,        |
 |  Arash. A. Mostofi, Mike C. Payne and Chris-Kriton Skylaris   |
 |                                                               |
 |  Contributors:                                                |
 |  J. Aarons, L. Andrinopoulos, P. W. Avraam, R. A. Bell,       |
 |  A. Bhandari, G. A. Bramley, R. J. Charlton, S. J. Clark,     |
 |  R. J. Clements, G. C. Constantinescu, F. Corsetti,           |
 |  N. Corsini, O. Dieguez, S. M. M. Dubois, K. K. B. Duff,      |
 |  J. M. Escartin, A. Greco, H. Helal, Q. O. Hill, L. P. Lee,   |
 |  J.-H. Li, E. B. Linscott, G. Moynihan, D. D. O`Regan,        |
 |  O. K. Okan, M. J. S. Phipps, C. J. Pickard,                  |
 |  J. C. A. Prentice, M. I. J. Probert, L. E. Ratcliff,         |
 |  M. Robinson, A. Ruiz Serrano, J. S. Spencer, E. W. Tait,     |
 |  G. Teobaldi, D. Turban, V. Vitale, K. A. Wilkinson,          |
 |  C. Weber, J. C. Womack, N. Yeung and T. J. Zuehlsdorff       |
 |                                                               |
 |                                   Copyright (c) 2004-2020     |
 |                                                               |
 |  Please cite:                                                 |
 |  "Introducing ONETEP: Linear-scaling density functional       |
 |   simulations on parallel computers".                         |
 |   C.-K. Skylaris, P. D. Haynes, A. A. Mostofi, M. C. Payne.   |
 |   J. Chem. Phys. 122 084119 (2005).                           |
 |                                                               |
 |          in all publications arising from your use of ONETEP. |
 |                                                               |
 +---------------------------------------------------------------+
 |                                                               |
 |   ONETEP is based on developments described in the following  |
 |   publications:                                               |
 |                                                               |
 |  "Nonorthogonal generalized Wannier function pseudopotential  |
 |   plane-wave method".                                         |
 |   C.-K. Skylaris, A. A. Mostofi, P. D. Haynes, O. Dieguez,    |
 |   M. C. Payne.                                                |
 |   Phys. Rev. B 66 035119 (2002).                              |
 |                                                               |
 |  "Preconditioned iterative minimization for linear-scaling    |
 |   electronic structure calculations".                         |
 |   A. A. Mostofi, P. D. Haynes, C.-K. Skylaris, M. C. Payne.   |
 |   J. Chem. Phys. 119(17), pp.8842-8848 (2003).                |
 |                                                               |
 |  "Total-energy calculations on a real space grid with         |
 |   localized functions and a plane-wave basis".                |
 |   A. A. Mostofi, C.-K. Skylaris, P. D. Haynes, M. C. Payne.   |
 |   Comput. Phys. Commun. 147, pp.788-802 (2002).               |
 |                                                               |
 |  "Accurate kinetic energy evaluation in electronic structure  |
 |   calculations with localized functions on real space grids"  |
 |   C.-K. Skylaris, A. A. Mostofi, P. D. Haynes, C. J. Pickard, |
 |   M. C. Payne.                                                |
 |   Comput. Phys. Commun. 140, pp.315-322 (2001).               |
 |                                                               |
 |  "Accurate ionic forces and geometry optimization in linear-  |
 |   scaling density-functional theory with local orbitals"      |
 |   N. D. M. Hine, M. Robinson, P. D. Haynes, C.-K. Skylaris,   |
 |   M. C. Payne, and A. A. Mostofi.                             |
 |   Phys. Rev. B 83 195102 (2011).                              |
 |                                                               |
 +---------------------------------------------------------------+

Job started: 05-03-2020 15:35 (-0000)
 
Reading parameters from file "4.158936_GO_manual_4x64graphite.dat" ...

WARNING: "cutoff_energy" not specified, but "psinc_spacing" specified.
         Using the latter to set the KE cutoff energy to  732.32021eV,
         thus *overriding* the default.

... done

If your calculation crashes here, before "Checking processes and threads..."
is displayed, then your stack size is insufficient.
If so, use "ulimit -s unlimited" at runtime.
You can disable this check with "check_stack_size F".

Checking processes and threads...
   Determining the default number of threads...
      No default threads set at compilation time: defaulting to 1.
      OpenMP library call suggests 4 threads.
      Hybrid MPI-OpenMP compilation detected.
      Number of MPI processes > 1.
      OMP_NUM_THREADS environment variable present and
      its value matches the one obtained from the OpenMP library call.
      Using this value as default.
      Default threads: 4
      Default applies to threads_max and threads_num_fftboxes.
      Settings in the input file override this default.
   ... done

   Running with 40 MPI processes.
   There are 10 MPI processes running on the same node as the root process.
   Each MPI process is using: 
               1 threads for simulation cell FFTs.
               1 threads for parallel FFT box operations.
               4 threads for loops over batched FFT box operations.
               4 threads in other parallel regions.
... done

Basic input checks...
Resetting ngwf_cg_rotate to TRUE for EDFT calculations
... done

Reading geometry and species blocks from file "4.158936_GO_manual_4x64graphite.dat" ...
    
  PSINC grid spacing along a1 set to   0.511215680000a0 from input file.
  PSINC grid spacing along a2 set to   0.531284090000a0 from input file.
  PSINC grid spacing along a3 set to   0.507049430000a0 from input file.
  Number of PPD points along a3 set to 1.  This is 
  the default value, it may have been provided also in the input file.
... done
 Writing xyz coordinates to file "4.158936_GO_manual_4x64graphite.xyz" ... done


--------------------------------------------------------------------------------
---------------------------------- INPUT FILE ----------------------------------
--------------------------------------------------------------------------------

task : singlepoint                                                              
do_properties : true                                                            
dx_format T                                                                     
edft T                                                                          
output_detail VERBOSE                                                           
write_xyz T                                                                     
xc_functional OPTPBE                                                            
PSINC_SPACING 0.51121568 0.53128409 0.50704943                                  
paw T                                                                           
pdos_max_l = 2                                                                  
dos_smear  0.1 eV                                                               
popn_calculate T                                                                
PDOS_PSEUDOATOMIC T                                                             
PDOS_REDUCE_SWS F                                                               
PDOS_CONSTRUCT_BASIS F                                                          
PDOS_LOWDIN T                                                                   
PDOS_ORTH_ATOM_BLOCKS F                                                         
PDOS_LCAO_OPTIMIZE F                                                            
pdos_optados_output T                                                           
homo_plot 0                                                                     
lumo_plot 0                                                                     
homo_dens_plot -1                                                               
lumo_dens_plot -1                                                               
%BLOCK SPECIES                                                                  
C C 6 4 9.0                                                                     
%ENDBLOCK SPECIES                                                               
%BLOCK SPECIES_POT                                                              
C "~/pp/paw/c_pbe_abinit.paw"                                                   
%ENDBLOCK SPECIES_POT                                                           
%BLOCK SPECIES_ATOMIC_SET                                                       
C "SOLVE conf=2s2 2p2"                                                          
%ENDBLOCK SPECIES_ATOMIC_SET                                                    
%BLOCK LATTICE_CART                                                             
32.21  0.00  0.00                                                               
0.00 18.59  0.00                                                                
0.00  0.00 78.59                                                                
%ENDBLOCK LATTICE_CART                                                          
%BLOCK POSITIONS_ABS                                                            
C  0.00  0.00  3.93                                                             
C  0.00  0.00 19.65                                                             
C  0.00  0.00 35.37                                                             
C  0.00  0.00 51.09                                                             
C  0.00  0.00 66.80                                                             
C  0.00  4.65  3.93                                                             
C  0.00  4.65 19.65                                                             
C  0.00  4.65 35.37                                                             
C  0.00  4.65 51.09                                                             
C  0.00  4.65 66.80                                                             
C  4.03  2.32  3.93                                                             
C  4.03  2.32 19.65                                                             
C  4.03  2.32 35.37                                                             
C  4.03  2.32 51.09                                                             
C  4.03  2.32 66.80                                                             
C  8.05  0.00  3.93                                                             
C  8.05  0.00 19.65                                                             
C  8.05  0.00 35.37                                                             
C  8.05  0.00 51.09                                                             
C  8.05  0.00 66.80                                                             
C  0.00  9.30  3.93                                                             
C  0.00  9.30 19.65                                                             
C  0.00  9.30 35.37                                                             
C  0.00  9.30 51.09                                                             
C  0.00  9.30 66.80                                                             
C  4.03  6.97  3.93                                                             
C  4.03  6.97 19.65                                                             
C  4.03  6.97 35.37                                                             
C  4.03  6.97 51.09                                                             
C  4.03  6.97 66.80                                                             
C  8.05  4.65  3.93                                                             
C  8.05  4.65 19.65                                                             
C  8.05  4.65 35.37                                                             
C  8.05  4.65 51.09                                                             
C  8.05  4.65 66.80                                                             
C 12.08  2.32  3.93                                                             
C 12.08  2.32 19.65                                                             
C 12.08  2.32 35.37                                                             
C 12.08  2.32 51.09                                                             
C 12.08  2.32 66.80                                                             
C 16.10  0.00  3.93                                                             
C 16.10  0.00 19.65                                                             
C 16.10  0.00 35.37                                                             
C 16.10  0.00 51.09                                                             
C 16.10  0.00 66.80                                                             
C  0.00 13.95  3.93                                                             
C  0.00 13.95 19.65                                                             
C  0.00 13.95 35.37                                                             
C  0.00 13.95 51.09                                                             
C  0.00 13.95 66.80                                                             
C  4.03 11.62  3.93                                                             
C  4.03 11.62 19.65                                                             
C  4.03 11.62 35.37                                                             
C  4.03 11.62 51.09                                                             
C  4.03 11.62 66.80                                                             
C  8.05  9.30  3.93                                                             
C  8.05  9.30 19.65                                                             
C  8.05  9.30 35.37                                                             
C  8.05  9.30 51.09                                                             
C  8.05  9.30 66.80                                                             
C 12.08  6.97  3.93                                                             
C 12.08  6.97 19.65                                                             
C 12.08  6.97 35.37                                                             
C 12.08  6.97 51.09                                                             
C 12.08  6.97 66.80                                                             
C 16.10  4.65  3.93                                                             
C 16.10  4.65 19.65                                                             
C 16.10  4.65 35.37                                                             
C 16.10  4.65 51.09                                                             
C 16.10  4.65 66.80                                                             
C 20.13  2.32  3.93                                                             
C 20.13  2.32 19.65                                                             
C 20.13  2.32 35.37                                                             
C 20.13  2.32 51.09                                                             
C 20.13  2.32 66.80                                                             
C 24.16  0.00  3.93                                                             
C 24.16  0.00 19.65                                                             
C 24.16  0.00 35.37                                                             
C 24.16  0.00 51.09                                                             
C 24.16  0.00 66.80                                                             
C  4.03 16.27  3.93                                                             
C  4.03 16.27 19.65                                                             
C  4.03 16.27 35.37                                                             
C  4.03 16.27 51.09                                                             
C  4.03 16.27 66.80                                                             
C  8.05 13.95  3.93                                                             
C  8.05 13.95 19.65                                                             
C  8.05 13.95 35.37                                                             
C  8.05 13.95 51.09                                                             
C  8.05 13.95 66.80                                                             
C 12.08 11.62  3.93                                                             
C 12.08 11.62 19.65                                                             
C 12.08 11.62 35.37                                                             
C 12.08 11.62 51.09                                                             
C 12.08 11.62 66.80                                                             
C 16.10  9.30  3.93                                                             
C 16.10  9.30 19.65                                                             
C 16.10  9.30 35.37                                                             
C 16.10  9.30 51.09                                                             
C 16.10  9.30 66.80                                                             
C 20.13  6.97  3.93                                                             
C 20.13  6.97 19.65                                                             
C 20.13  6.97 35.37                                                             
C 20.13  6.97 51.09                                                             
C 20.13  6.97 66.80                                                             
C 24.16  4.65  3.93                                                             
C 24.16  4.65 19.65                                                             
C 24.16  4.65 35.37                                                             
C 24.16  4.65 51.09                                                             
C 24.16  4.65 66.80                                                             
C 28.18  2.32  3.93                                                             
C 28.18  2.32 19.65                                                             
C 28.18  2.32 35.37                                                             
C 28.18  2.32 51.09                                                             
C 28.18  2.32 66.80                                                             
C 12.08 16.27  3.93                                                             
C 12.08 16.27 19.65                                                             
C 12.08 16.27 35.37                                                             
C 12.08 16.27 51.09                                                             
C 12.08 16.27 66.80                                                             
C 16.10 13.95  3.93                                                             
C 16.10 13.95 19.65                                                             
C 16.10 13.95 35.37                                                             
C 16.10 13.95 51.09                                                             
C 16.10 13.95 66.80                                                             
C 20.13 11.62  3.93                                                             
C 20.13 11.62 19.65                                                             
C 20.13 11.62 35.37                                                             
C 20.13 11.62 51.09                                                             
C 20.13 11.62 66.80                                                             
C 24.16  9.30  3.93                                                             
C 24.16  9.30 19.65                                                             
C 24.16  9.30 35.37                                                             
C 24.16  9.30 51.09                                                             
C 24.16  9.30 66.80                                                             
C 28.18  6.97  3.93                                                             
C 28.18  6.97 19.65                                                             
C 28.18  6.97 35.37                                                             
C 28.18  6.97 51.09                                                             
C 28.18  6.97 66.80                                                             
C 20.13 16.27  3.93                                                             
C 20.13 16.27 19.65                                                             
C 20.13 16.27 35.37                                                             
C 20.13 16.27 51.09                                                             
C 20.13 16.27 66.80                                                             
C 24.16 13.95  3.93                                                             
C 24.16 13.95 19.65                                                             
C 24.16 13.95 35.37                                                             
C 24.16 13.95 51.09                                                             
C 24.16 13.95 66.80                                                             
C 28.18 11.62  3.93                                                             
C 28.18 11.62 19.65                                                             
C 28.18 11.62 35.37                                                             
C 28.18 11.62 51.09                                                             
C 28.18 11.62 66.80                                                             
C 28.18 16.27  3.93                                                             
C 28.18 16.27 19.65                                                             
C 28.18 16.27 35.37                                                             
C 28.18 16.27 51.09                                                             
C 28.18 16.27 66.80                                                             
C  0.00  0.00 11.79                                                             
C  0.00  0.00 27.51                                                             
C  0.00  0.00 43.23                                                             
C  0.00  0.00 58.94                                                             
C  0.00  0.00 74.66                                                             
C  0.00  4.65 11.79                                                             
C  0.00  4.65 27.51                                                             
C  0.00  4.65 43.23                                                             
C  0.00  4.65 58.94                                                             
C  0.00  4.65 74.66                                                             
C  4.03  2.32 11.79                                                             
C  4.03  2.32 27.51                                                             
C  4.03  2.32 43.23                                                             
C  4.03  2.32 58.94                                                             
C  4.03  2.32 74.66                                                             
C  8.05  0.00 11.79                                                             
C  8.05  0.00 27.51                                                             
C  8.05  0.00 43.23                                                             
C  8.05  0.00 58.94                                                             
C  8.05  0.00 74.66                                                             
C  0.00  9.30 11.79                                                             
C  0.00  9.30 27.51                                                             
C  0.00  9.30 43.23                                                             
C  0.00  9.30 58.94                                                             
C  0.00  9.30 74.66                                                             
C  4.03  6.97 11.79                                                             
C  4.03  6.97 27.51                                                             
C  4.03  6.97 43.23                                                             
C  4.03  6.97 58.94                                                             
C  4.03  6.97 74.66                                                             
C  8.05  4.65 11.79                                                             
C  8.05  4.65 27.51                                                             
C  8.05  4.65 43.23                                                             
C  8.05  4.65 58.94                                                             
C  8.05  4.65 74.66                                                             
C 12.08  2.32 11.79                                                             
C 12.08  2.32 27.51                                                             
C 12.08  2.32 43.23                                                             
C 12.08  2.32 58.94                                                             
C 12.08  2.32 74.66                                                             
C 16.10  0.00 11.79                                                             
C 16.10  0.00 27.51                                                             
C 16.10  0.00 43.23                                                             
C 16.10  0.00 58.94                                                             
C 16.10  0.00 74.66                                                             
C  0.00 13.95 11.79                                                             
C  0.00 13.95 27.51                                                             
C  0.00 13.95 43.23                                                             
C  0.00 13.95 58.94                                                             
C  0.00 13.95 74.66                                                             
C  4.03 11.62 11.79                                                             
C  4.03 11.62 27.51                                                             
C  4.03 11.62 43.23                                                             
C  4.03 11.62 58.94                                                             
C  4.03 11.62 74.66                                                             
C  8.05  9.30 11.79                                                             
C  8.05  9.30 27.51                                                             
C  8.05  9.30 43.23                                                             
C  8.05  9.30 58.94                                                             
C  8.05  9.30 74.66                                                             
C 12.08  6.97 11.79                                                             
C 12.08  6.97 27.51                                                             
C 12.08  6.97 43.23                                                             
C 12.08  6.97 58.94                                                             
C 12.08  6.97 74.66                                                             
C 16.10  4.65 11.79                                                             
C 16.10  4.65 27.51                                                             
C 16.10  4.65 43.23                                                             
C 16.10  4.65 58.94                                                             
C 16.10  4.65 74.66                                                             
C 20.13  2.32 11.79                                                             
C 20.13  2.32 27.51                                                             
C 20.13  2.32 43.23                                                             
C 20.13  2.32 58.94                                                             
C 20.13  2.32 74.66                                                             
C 24.16  0.00 11.79                                                             
C 24.16  0.00 27.51                                                             
C 24.16  0.00 43.23                                                             
C 24.16  0.00 58.94                                                             
C 24.16  0.00 74.66                                                             
C  4.03 16.27 11.79                                                             
C  4.03 16.27 27.51                                                             
C  4.03 16.27 43.23                                                             
C  4.03 16.27 58.94                                                             
C  4.03 16.27 74.66                                                             
C  8.05 13.95 11.79                                                             
C  8.05 13.95 27.51                                                             
C  8.05 13.95 43.23                                                             
C  8.05 13.95 58.94                                                             
C  8.05 13.95 74.66                                                             
C 12.08 11.62 11.79                                                             
C 12.08 11.62 27.51                                                             
C 12.08 11.62 43.23                                                             
C 12.08 11.62 58.94                                                             
C 12.08 11.62 74.66                                                             
C 16.10  9.30 11.79                                                             
C 16.10  9.30 27.51                                                             
C 16.10  9.30 43.23                                                             
C 16.10  9.30 58.94                                                             
C 16.10  9.30 74.66                                                             
C 20.13  6.97 11.79                                                             
C 20.13  6.97 27.51                                                             
C 20.13  6.97 43.23                                                             
C 20.13  6.97 58.94                                                             
C 20.13  6.97 74.66                                                             
C 24.16  4.65 11.79                                                             
C 24.16  4.65 27.51                                                             
C 24.16  4.65 43.23                                                             
C 24.16  4.65 58.94                                                             
C 24.16  4.65 74.66                                                             
C 28.18  2.32 11.79                                                             
C 28.18  2.32 27.51                                                             
C 28.18  2.32 43.23                                                             
C 28.18  2.32 58.94                                                             
C 28.18  2.32 74.66                                                             
C 12.08 16.27 11.79                                                             
C 12.08 16.27 27.51                                                             
C 12.08 16.27 43.23                                                             
C 12.08 16.27 58.94                                                             
C 12.08 16.27 74.66                                                             
C 16.10 13.95 11.79                                                             
C 16.10 13.95 27.51                                                             
C 16.10 13.95 43.23                                                             
C 16.10 13.95 58.94                                                             
C 16.10 13.95 74.66                                                             
C 20.13 11.62 11.79                                                             
C 20.13 11.62 27.51                                                             
C 20.13 11.62 43.23                                                             
C 20.13 11.62 58.94                                                             
C 20.13 11.62 74.66                                                             
C 24.16  9.30 11.79                                                             
C 24.16  9.30 27.51                                                             
C 24.16  9.30 43.23                                                             
C 24.16  9.30 58.94                                                             
C 24.16  9.30 74.66                                                             
C 28.18  6.97 11.79                                                             
C 28.18  6.97 27.51                                                             
C 28.18  6.97 43.23                                                             
C 28.18  6.97 58.94                                                             
C 28.18  6.97 74.66                                                             
C 20.13 16.27 11.79                                                             
C 20.13 16.27 27.51                                                             
C 20.13 16.27 43.23                                                             
C 20.13 16.27 58.94                                                             
C 20.13 16.27 74.66                                                             
C 24.16 13.95 11.79                                                             
C 24.16 13.95 27.51                                                             
C 24.16 13.95 43.23                                                             
C 24.16 13.95 58.94                                                             
C 24.16 13.95 74.66                                                             
C 28.18 11.62 11.79                                                             
C 28.18 11.62 27.51                                                             
C 28.18 11.62 43.23                                                             
C 28.18 11.62 58.94                                                             
C 28.18 11.62 74.66                                                             
C 28.18 16.27 11.79                                                             
C 28.18 16.27 27.51                                                             
C 28.18 16.27 43.23                                                             
C 28.18 16.27 58.94                                                             
C 28.18 16.27 74.66                                                             
C  1.34  2.32  3.93                                                             
C  1.34  2.32 19.65                                                             
C  1.34  2.32 35.37                                                             
C  1.34  2.32 51.09                                                             
C  1.34  2.32 66.80                                                             
C  5.37  0.00  3.93                                                             
C  5.37  0.00 19.65                                                             
C  5.37  0.00 35.37                                                             
C  5.37  0.00 51.09                                                             
C  5.37  0.00 66.80                                                             
C  1.34  6.97  3.93                                                             
C  1.34  6.97 19.65                                                             
C  1.34  6.97 35.37                                                             
C  1.34  6.97 51.09                                                             
C  1.34  6.97 66.80                                                             
C  5.37  4.65  3.93                                                             
C  5.37  4.65 19.65                                                             
C  5.37  4.65 35.37                                                             
C  5.37  4.65 51.09                                                             
C  5.37  4.65 66.80                                                             
C  9.39  2.32  3.93                                                             
C  9.39  2.32 19.65                                                             
C  9.39  2.32 35.37                                                             
C  9.39  2.32 51.09                                                             
C  9.39  2.32 66.80                                                             
C 13.42  0.00  3.93                                                             
C 13.42  0.00 19.65                                                             
C 13.42  0.00 35.37                                                             
C 13.42  0.00 51.09                                                             
C 13.42  0.00 66.80                                                             
C  1.34 11.62  3.93                                                             
C  1.34 11.62 19.65                                                             
C  1.34 11.62 35.37                                                             
C  1.34 11.62 51.09                                                             
C  1.34 11.62 66.80                                                             
C  5.37  9.30  3.93                                                             
C  5.37  9.30 19.65                                                             
C  5.37  9.30 35.37                                                             
C  5.37  9.30 51.09                                                             
C  5.37  9.30 66.80                                                             
C  9.39  6.97  3.93                                                             
C  9.39  6.97 19.65                                                             
C  9.39  6.97 35.37                                                             
C  9.39  6.97 51.09                                                             
C  9.39  6.97 66.80                                                             
C 13.42  4.65  3.93                                                             
C 13.42  4.65 19.65                                                             
C 13.42  4.65 35.37                                                             
C 13.42  4.65 51.09                                                             
C 13.42  4.65 66.80                                                             
C 17.45  2.32  3.93                                                             
C 17.45  2.32 19.65                                                             
C 17.45  2.32 35.37                                                             
C 17.45  2.32 51.09                                                             
C 17.45  2.32 66.80                                                             
C 21.47  0.00  3.93                                                             
C 21.47  0.00 19.65                                                             
C 21.47  0.00 35.37                                                             
C 21.47  0.00 51.09                                                             
C 21.47  0.00 66.80                                                             
C  1.34 16.27  3.93                                                             
C  1.34 16.27 19.65                                                             
C  1.34 16.27 35.37                                                             
C  1.34 16.27 51.09                                                             
C  1.34 16.27 66.80                                                             
C  5.37 13.95  3.93                                                             
C  5.37 13.95 19.65                                                             
C  5.37 13.95 35.37                                                             
C  5.37 13.95 51.09                                                             
C  5.37 13.95 66.80                                                             
C  9.39 11.62  3.93                                                             
C  9.39 11.62 19.65                                                             
C  9.39 11.62 35.37                                                             
C  9.39 11.62 51.09                                                             
C  9.39 11.62 66.80                                                             
C 13.42  9.30  3.93                                                             
C 13.42  9.30 19.65                                                             
C 13.42  9.30 35.37                                                             
C 13.42  9.30 51.09                                                             
C 13.42  9.30 66.80                                                             
C 17.45  6.97  3.93                                                             
C 17.45  6.97 19.65                                                             
C 17.45  6.97 35.37                                                             
C 17.45  6.97 51.09                                                             
C 17.45  6.97 66.80                                                             
C 21.47  4.65  3.93                                                             
C 21.47  4.65 19.65                                                             
C 21.47  4.65 35.37                                                             
C 21.47  4.65 51.09                                                             
C 21.47  4.65 66.80                                                             
C 25.50  2.32  3.93                                                             
C 25.50  2.32 19.65                                                             
C 25.50  2.32 35.37                                                             
C 25.50  2.32 51.09                                                             
C 25.50  2.32 66.80                                                             
C 29.52  0.00  3.93                                                             
C 29.52  0.00 19.65                                                             
C 29.52  0.00 35.37                                                             
C 29.52  0.00 51.09                                                             
C 29.52  0.00 66.80                                                             
C  9.39 16.27  3.93                                                             
C  9.39 16.27 19.65                                                             
C  9.39 16.27 35.37                                                             
C  9.39 16.27 51.09                                                             
C  9.39 16.27 66.80                                                             
C 13.42 13.95  3.93                                                             
C 13.42 13.95 19.65                                                             
C 13.42 13.95 35.37                                                             
C 13.42 13.95 51.09                                                             
C 13.42 13.95 66.80                                                             
C 17.45 11.62  3.93                                                             
C 17.45 11.62 19.65                                                             
C 17.45 11.62 35.37                                                             
C 17.45 11.62 51.09                                                             
C 17.45 11.62 66.80                                                             
C 21.47  9.30  3.93                                                             
C 21.47  9.30 19.65                                                             
C 21.47  9.30 35.37                                                             
C 21.47  9.30 51.09                                                             
C 21.47  9.30 66.80                                                             
C 25.50  6.97  3.93                                                             
C 25.50  6.97 19.65                                                             
C 25.50  6.97 35.37                                                             
C 25.50  6.97 51.09                                                             
C 25.50  6.97 66.80                                                             
C 29.52  4.65  3.93                                                             
C 29.52  4.65 19.65                                                             
C 29.52  4.65 35.37                                                             
C 29.52  4.65 51.09                                                             
C 29.52  4.65 66.80                                                             
C 17.45 16.27  3.93                                                             
C 17.45 16.27 19.65                                                             
C 17.45 16.27 35.37                                                             
C 17.45 16.27 51.09                                                             
C 17.45 16.27 66.80                                                             
C 21.47 13.95  3.93                                                             
C 21.47 13.95 19.65                                                             
C 21.47 13.95 35.37                                                             
C 21.47 13.95 51.09                                                             
C 21.47 13.95 66.80                                                             
C 25.50 11.62  3.93                                                             
C 25.50 11.62 19.65                                                             
C 25.50 11.62 35.37                                                             
C 25.50 11.62 51.09                                                             
C 25.50 11.62 66.80                                                             
C 29.52  9.30  3.93                                                             
C 29.52  9.30 19.65                                                             
C 29.52  9.30 35.37                                                             
C 29.52  9.30 51.09                                                             
C 29.52  9.30 66.80                                                             
C 25.50 16.27  3.93                                                             
C 25.50 16.27 19.65                                                             
C 25.50 16.27 35.37                                                             
C 25.50 16.27 51.09                                                             
C 25.50 16.27 66.80                                                             
C 29.52 13.95  3.93                                                             
C 29.52 13.95 19.65                                                             
C 29.52 13.95 35.37                                                             
C 29.52 13.95 51.09                                                             
C 29.52 13.95 66.80                                                             
C  2.68  0.00 11.79                                                             
C  2.68  0.00 27.51                                                             
C  2.68  0.00 43.23                                                             
C  2.68  0.00 58.94                                                             
C  2.68  0.00 74.66                                                             
C  2.68  4.65 11.79                                                             
C  2.68  4.65 27.51                                                             
C  2.68  4.65 43.23                                                             
C  2.68  4.65 58.94                                                             
C  2.68  4.65 74.66                                                             
C  6.71  2.32 11.79                                                             
C  6.71  2.32 27.51                                                             
C  6.71  2.32 43.23                                                             
C  6.71  2.32 58.94                                                             
C  6.71  2.32 74.66                                                             
C 10.74  0.00 11.79                                                             
C 10.74  0.00 27.51                                                             
C 10.74  0.00 43.23                                                             
C 10.74  0.00 58.94                                                             
C 10.74  0.00 74.66                                                             
C  2.68  9.30 11.79                                                             
C  2.68  9.30 27.51                                                             
C  2.68  9.30 43.23                                                             
C  2.68  9.30 58.94                                                             
C  2.68  9.30 74.66                                                             
C  6.71  6.97 11.79                                                             
C  6.71  6.97 27.51                                                             
C  6.71  6.97 43.23                                                             
C  6.71  6.97 58.94                                                             
C  6.71  6.97 74.66                                                             
C 10.74  4.65 11.79                                                             
C 10.74  4.65 27.51                                                             
C 10.74  4.65 43.23                                                             
C 10.74  4.65 58.94                                                             
C 10.74  4.65 74.66                                                             
C 14.76  2.32 11.79                                                             
C 14.76  2.32 27.51                                                             
C 14.76  2.32 43.23                                                             
C 14.76  2.32 58.94                                                             
C 14.76  2.32 74.66                                                             
C 18.79  0.00 11.79                                                             
C 18.79  0.00 27.51                                                             
C 18.79  0.00 43.23                                                             
C 18.79  0.00 58.94                                                             
C 18.79  0.00 74.66                                                             
C  2.68 13.95 11.79                                                             
C  2.68 13.95 27.51                                                             
C  2.68 13.95 43.23                                                             
C  2.68 13.95 58.94                                                             
C  2.68 13.95 74.66                                                             
C  6.71 11.62 11.79                                                             
C  6.71 11.62 27.51                                                             
C  6.71 11.62 43.23                                                             
C  6.71 11.62 58.94                                                             
C  6.71 11.62 74.66                                                             
C 10.74  9.30 11.79                                                             
C 10.74  9.30 27.51                                                             
C 10.74  9.30 43.23                                                             
C 10.74  9.30 58.94                                                             
C 10.74  9.30 74.66                                                             
C 14.76  6.97 11.79                                                             
C 14.76  6.97 27.51                                                             
C 14.76  6.97 43.23                                                             
C 14.76  6.97 58.94                                                             
C 14.76  6.97 74.66                                                             
C 18.79  4.65 11.79                                                             
C 18.79  4.65 27.51                                                             
C 18.79  4.65 43.23                                                             
C 18.79  4.65 58.94                                                             
C 18.79  4.65 74.66                                                             
C 22.81  2.32 11.79                                                             
C 22.81  2.32 27.51                                                             
C 22.81  2.32 43.23                                                             
C 22.81  2.32 58.94                                                             
C 22.81  2.32 74.66                                                             
C 26.84  0.00 11.79                                                             
C 26.84  0.00 27.51                                                             
C 26.84  0.00 43.23                                                             
C 26.84  0.00 58.94                                                             
C 26.84  0.00 74.66                                                             
C  6.71 16.27 11.79                                                             
C  6.71 16.27 27.51                                                             
C  6.71 16.27 43.23                                                             
C  6.71 16.27 58.94                                                             
C  6.71 16.27 74.66                                                             
C 10.74 13.95 11.79                                                             
C 10.74 13.95 27.51                                                             
C 10.74 13.95 43.23                                                             
C 10.74 13.95 58.94                                                             
C 10.74 13.95 74.66                                                             
C 14.76 11.62 11.79                                                             
C 14.76 11.62 27.51                                                             
C 14.76 11.62 43.23                                                             
C 14.76 11.62 58.94                                                             
C 14.76 11.62 74.66                                                             
C 18.79  9.30 11.79                                                             
C 18.79  9.30 27.51                                                             
C 18.79  9.30 43.23                                                             
C 18.79  9.30 58.94                                                             
C 18.79  9.30 74.66                                                             
C 22.81  6.97 11.79                                                             
C 22.81  6.97 27.51                                                             
C 22.81  6.97 43.23                                                             
C 22.81  6.97 58.94                                                             
C 22.81  6.97 74.66                                                             
C 26.84  4.65 11.79                                                             
C 26.84  4.65 27.51                                                             
C 26.84  4.65 43.23                                                             
C 26.84  4.65 58.94                                                             
C 26.84  4.65 74.66                                                             
C 30.86  2.32 11.79                                                             
C 30.86  2.32 27.51                                                             
C 30.86  2.32 43.23                                                             
C 30.86  2.32 58.94                                                             
C 30.86  2.32 74.66                                                             
C 14.76 16.27 11.79                                                             
C 14.76 16.27 27.51                                                             
C 14.76 16.27 43.23                                                             
C 14.76 16.27 58.94                                                             
C 14.76 16.27 74.66                                                             
C 18.79 13.95 11.79                                                             
C 18.79 13.95 27.51                                                             
C 18.79 13.95 43.23                                                             
C 18.79 13.95 58.94                                                             
C 18.79 13.95 74.66                                                             
C 22.81 11.62 11.79                                                             
C 22.81 11.62 27.51                                                             
C 22.81 11.62 43.23                                                             
C 22.81 11.62 58.94                                                             
C 22.81 11.62 74.66                                                             
C 26.84  9.30 11.79                                                             
C 26.84  9.30 27.51                                                             
C 26.84  9.30 43.23                                                             
C 26.84  9.30 58.94                                                             
C 26.84  9.30 74.66                                                             
C 30.86  6.97 11.79                                                             
C 30.86  6.97 27.51                                                             
C 30.86  6.97 43.23                                                             
C 30.86  6.97 58.94                                                             
C 30.86  6.97 74.66                                                             
C 22.81 16.27 11.79                                                             
C 22.81 16.27 27.51                                                             
C 22.81 16.27 43.23                                                             
C 22.81 16.27 58.94                                                             
C 22.81 16.27 74.66                                                             
C 26.84 13.95 11.79                                                             
C 26.84 13.95 27.51                                                             
C 26.84 13.95 43.23                                                             
C 26.84 13.95 58.94                                                             
C 26.84 13.95 74.66                                                             
C 30.86 11.62 11.79                                                             
C 30.86 11.62 27.51                                                             
C 30.86 11.62 43.23                                                             
C 30.86 11.62 58.94                                                             
C 30.86 11.62 74.66                                                             
C 30.86 16.27 11.79                                                             
C 30.86 16.27 27.51                                                             
C 30.86 16.27 43.23                                                             
C 30.86 16.27 58.94                                                             
C 30.86 16.27 74.66                                                             
%ENDBLOCK POSITIONS_ABS                                                         

--------------------------------------------------------------------------------
-------------------------------- END INPUT FILE --------------------------------
--------------------------------------------------------------------------------


 
<<<<<<<<<<<<<<<<<<<<<<<<<<<<<<<<< Full system >>>>>>>>>>>>>>>>>>>>>>>>>>>>>>>>>>
<<<<<<<<<<<<<<<<<<<<<<<<<<< PAW Dataset information >>>>>>>>>>>>>>>>>>>>>>>>>>>
File: ~/pp/paw/c_pbe_abinit.paw; rc = 1.25 bohr; shape type =  3; rshape = 1.25 bohr;
  Atomic number:  6;  ionic charge:  4.000000
    Partial Wave 1: l = 0
    Partial Wave 2: l = 0
    Partial Wave 3: l = 1
    Partial Wave 4: l = 1
  Core charge supplied for Nonlinear Core Corrections
<<<<<<<<<<<<<<<<<<<<<<<<<<<<<<<<<<<<<<< >>>>>>>>>>>>>>>>>>>>>>>>>>>>>>>>>>>>>>>

-------------------------- Atom counting information ---------------------------
Symbol    Natoms    Nngwfs    Nprojs
  C        640      2560      5120
.......   ......    ......    ......
Totals:    640      2560      5120
--------------------------------------------------------------------------------

=============================== PSINC grid sizes ===============================
                      Simulation cell:   63 x  35 x 155
                              FFT-box:   63 x  35 x 117
                                  PPD:    7 x   5 x   1
Grid space d1=  0.511269841270a0 (KE cutoff=  29.06054Eh = 790.77748eV)
Grid space d2=  0.531142857143a0 (KE cutoff=  26.92659Eh = 732.70972eV)
Grid space d3=  0.507032258065a0 (KE cutoff=  29.54832Eh = 804.05075eV)
================================================================================
  
WARNING in cell_grid_distribute:
Average of less than one 23-slab per node, so workload cannot be
equally balanced between nodes.

********************* Fourier parallelisation information **********************
       Coarse grid (whole simulation cell) dimensions:     63    35   155
          Real-space ('12') slabs/node (min max mean):      3     4     3
         Recip-space ('23') slabs/node (min max mean):      0     1     0
********************************************************************************

********************* Fourier parallelisation information **********************
       Double grid (whole simulation cell) dimensions:    126    70   310
          Real-space ('12') slabs/node (min max mean):      7     8     7
         Recip-space ('23') slabs/node (min max mean):      1     2     1
********************************************************************************

Atom SCF Calculation for C  : Z (AE atom) =   6 : Z (PS atom) =   4
Config String: 2s2 2p2
Orbitals (num,occ):  2     2.00 2.00
Orbitals   (num,l):  2        0    1
Real-space Grid (nr,dr,rmax): 1293    0.0069659443    9.0000000000
Spherical Bessel Basis (nsws,lmax,cutoff):   37    2  161.4736382572
Confining potential (l,width,scale):  0    3.0000000000  100.0000000000
Confining potential (l,width,scale):  1    3.0000000000  100.0000000000
  1         -5.4795203654   -1.3252209296    4.5135257941   -1.6370402169
  2         -5.4480859746   -1.4027979239    4.4305951748   -1.6109819005
  3         -5.4553164790   -1.4212834043    4.4102618304   -1.6059039466
  4         -5.4627841133   -1.4247091338    4.4065122085   -1.6052907585
  5         -5.4662306655   -1.4266814823    4.4043715292   -1.6049352647
  6         -5.4679520247   -1.4277352742    4.4032348712   -1.6047493439
  7         -5.4688359568   -1.4282868030    4.4026432892   -1.6046541449
  8         -5.4692951245   -1.4285734530    4.4023374832   -1.6046056242
  9         -5.4695349887   -1.4287220785    4.4021797781   -1.6045809101
 10         -5.4696606791   -1.4287991022    4.4020984905   -1.6045683155
 11         -5.4697266650   -1.4288390363    4.4020565747   -1.6045618912
 12         -5.4697613504   -1.4288597596    4.4020349416   -1.6045586107
 13         -5.4697795998   -1.4288705262    4.4020237638   -1.6045569335
 14         -5.4697892089   -1.4288761271    4.4020179806   -1.6045560749
 15         -5.4697942720   -1.4288790448    4.4020149844   -1.6045556348
 16         -5.4697969415   -1.4288805668    4.4020134298   -1.6045554088
 17         -5.4697983498   -1.4288813619    4.4020126220   -1.6045552927
 18         -5.4697990933   -1.4288817779    4.4020122017   -1.6045552329
 19         -5.4697994860   -1.4288819957    4.4020119826   -1.6045552021
 20         -5.4697996936   -1.4288821100    4.4020118683   -1.6045551862
 21         -5.4697998034   -1.4288821701    4.4020118085   -1.6045551780
 22         -5.4697998614   -1.4288822017    4.4020117772   -1.6045551737
Atom SCF converged after  22 iterations to a total energy of     -5.46979986

Determining parallel strategy ...
... using space-filling curve
... NGWF load balancing: max     64;  min     64;  average     64
... Projector load balancing: max    128;  min    128;  average    128
... done
Calculating Ewald energy ...
              Ewald: real-space energy =    9527.449880
        Ewald: reciprocal-space energy =       1.255458
         Ewald: (sum_charge)**2 Energy =   10531.998999
         Ewald: (sum_charge**2) Energy =     832.627629
                          Ewald Energy =   -1835.921291
Basis initialisation ...... NGWF spheres initialised
... Projector spheres initialised
... NGWF tight boxes initialised
... Projector tight boxes initialised
... Tight-boxes gathered
... NGWF basis size (local,global):     692340  27886592
... PAW projector initialisation
... done

============================= Charge Augmentation ==============================
                           Aug box size:   11 x  11 x  11
================================================================================

========================== Sparse matrix information ===========================
                        Overlap matrix filling:  35.78%
                        Density kernel filling: 100.00%
              NGWF-Proj overlap matrix filling:   9.38%
                    Aug Overlap matrix filling:  39.69%
                    Hamiltonian matrix filling:  39.69%
                  NGWF diagonal matrix filling:   0.16%
                             KS matrix filling: 100.00% 
                           KSKS matrix filling: 100.00% 
================================================================================

Sparse matrix initialisation ... done
NGWF initialisation ...... done
============ Calculation of NGWF S^-1 using Hotelling algorithm ================ 
         Iteration  |  Frobenius norm and Maximum abs value    (of I-S*S_n^-1)   
               1       0.48835398E+02     0.97297156E+00
               2       0.47467118E+02     0.94788822E+00
               3       0.45473849E+02     0.90273758E+00
               4       0.42960345E+02     0.82814996E+00
               5       0.39989664E+02     0.72171195E+00
               6       0.36606925E+02     0.66808562E+00
               7       0.33175560E+02     0.62240255E+00
               8       0.29877489E+02     0.58304467E+00
               9       0.26194302E+02     0.53561732E+00
              10       0.21439927E+02     0.45901239E+00
              11       0.15310967E+02     0.34057202E+00
              12       0.85449577E+01     0.19302566E+00
              13       0.30834344E+01     0.67057591E-01
              14       0.48282019E+00     0.94706388E-02
              15       0.14310247E-01     0.23584068E-03
              16       0.17093559E-04     0.19688234E-06
              17       0.37512536E-10     0.25790481E-12
================================================================================
Calculating core density ...
================================= Core Density =================================
               Core den box size:   21 x  21 x  21
================================================================================
 ... done
Up spin density kernel initialisation ...... done

Writing density kernel to file "4.158936_GO_manual_4x64graphite.dkn" ... done

>>> Optimising kernel for current NGWFs:

--------------------------- Ensemble-DFT optimisation --------------------------
Running ScaLAPACK on   40 processor(s).

--------------------------------------------------------------------------------
  Iter                              Commutator    Free_energy(A=E-TS)     DeltaA
#    0                          0.000035933616   -3647.22535843430569  -3.65E+03

Step                       =       0.381966011250
Energy                     =   -3647.225334167718
Entropy (-TS)              =      -0.000024266647
Free energy (A=E-TS)       =   -3647.225358434306
Est. 0K Energy 0.5*(E+A)   =   -3647.225346301012
Residual Non-orthogonality =       0.000000000000
Residual N_electrons       =       0.000000000059

Spin          Integrated_Ne            Fermi_level     Delta_Fermi_level
   1      2559.999999999491         0.116277561315              1.16E-01

                           Spin 1          
     Orb      H-eigenvalues     Occupancies
       1 |    -0.6058040323    1.0000000000 | 
                          ------
    1276 |     0.0795962361    0.9999906773 | 
    1277 |     0.0798591993    0.9999898701 | 
    1278 |     0.0802214572    0.9999886425 | 
    1279 |     0.0802243779    0.9999886320 | 
    1280 |     0.0804890103    0.9999876412 | 
                 - Gap at zero temperature -
    1281 |     0.1532252439    0.0000085707 | 
    1282 |     0.1532261296    0.0000085683 | 
    1283 |     0.1532291208    0.0000085602 | 
    1284 |     0.1532401231    0.0000085305 | 
    1285 |     0.1532430779    0.0000085225 | 
                          ------
    2560 |     0.9502401853    0.0000000000 | 

                       |  Abs_value |  Threshold | Converged
     Delta_Free_energy |   3.65E+03 |   1.00E-06 |        No
     Delta_Energy      |   3.65E+03 |   1.00E-04 |        No
     Delta_Entropy     |   2.43E-05 |   1.00E-04 |       Yes
     Commutator        |   3.59E-05 |   1.00E-05 |        No
     Delta_Fermi_level |   1.16E-01 |   1.00E-03 |        No

  Line search of the free energy minimum:
  Step_type        Step             Free_energy   Predicted_free_energy
.   Initial    0.000000    -3647.22535843430569
.    Trial1    0.381966    -3647.22680743728324
.    Trial2    0.618034    -3647.22715148440102
. Quadratic    0.692782    -3647.22717282552912    -3647.22717260376794

--------------------------------------------------------------------------------
  Iter                              Commutator    Free_energy(A=E-TS)     DeltaA
#    1                          0.000018890528   -3647.22717282552912  -1.81E-03

Step                       =       0.692781705480
Energy                     =   -3647.227148133995
Entropy (-TS)              =      -0.000024691677
Free energy (A=E-TS)       =   -3647.227172825529
Est. 0K Energy 0.5*(E+A)   =   -3647.227160479762
Residual Non-orthogonality =       0.000000000000
Residual N_electrons       =       0.000000000143

Spin          Integrated_Ne            Fermi_level     Delta_Fermi_level
   1      2559.999999998718         0.111866505746             -4.41E-03

                           Spin 1          
     Orb      H-eigenvalues     Occupancies
       1 |    -0.6126961415    1.0000000000 | 
                          ------
    1276 |     0.0752714897    0.9999904197 | 
    1277 |     0.0755146102    0.9999896553 | 
    1278 |     0.0757222148    0.9999889544 | 
    1279 |     0.0757244729    0.9999889465 | 
    1280 |     0.0759689041    0.9999880595 | 
                 - Gap at zero temperature -
    1281 |     0.1486640779    0.0000089867 | 
    1282 |     0.1486745820    0.0000089570 | 
    1283 |     0.1486795618    0.0000089429 | 
    1284 |     0.1486948945    0.0000088997 | 
    1285 |     0.1486996476    0.0000088863 | 
                          ------
    2560 |     0.9431870578    0.0000000000 | 

                       |  Abs_value |  Threshold | Converged
     Delta_Free_energy |   1.81E-03 |   1.00E-06 |        No
     Delta_Energy      |   1.81E-03 |   1.00E-04 |        No
     Delta_Entropy     |   4.25E-07 |   1.00E-04 |       Yes
     Commutator        |   1.89E-05 |   1.00E-05 |        No
     Delta_Fermi_level |   4.41E-03 |   1.00E-03 |        No

  Line search of the free energy minimum:
  Step_type        Step             Free_energy   Predicted_free_energy
.   Initial    0.000000    -3647.22717282552912
.    Trial1    0.692782    -3647.22647585143477
.    Trial2    0.264619    -3647.22752489539153
. Quadratic    0.254213    -3647.22752548970720    -3647.22752548634799

--------------------------------------------------------------------------------
  Iter                              Commutator    Free_energy(A=E-TS)     DeltaA
#    2                          0.000008648197   -3647.22752548970720  -3.53E-04

Step                       =       0.254212760975
Energy                     =   -3647.227500757018
Entropy (-TS)              =      -0.000024732926
Free energy (A=E-TS)       =   -3647.227525489707
Est. 0K Energy 0.5*(E+A)   =   -3647.227513123363
Residual Non-orthogonality =       0.000000000000
Residual N_electrons       =       0.000000000236

Spin          Integrated_Ne            Fermi_level     Delta_Fermi_level
   1      2559.999999997878         0.111377621943             -4.89E-04

                           Spin 1          
     Orb      H-eigenvalues     Occupancies
       1 |    -0.6134698348    1.0000000000 | 
                          ------
    1276 |     0.0747451420    0.9999905324 | 
    1277 |     0.0749860075    0.9999897842 | 
    1278 |     0.0752621935    0.9999888532 | 
    1279 |     0.0752643386    0.9999888457 | 
    1280 |     0.0755066341    0.9999879588 | 
                 - Gap at zero temperature -
    1281 |     0.1481989463    0.0000089196 | 
    1282 |     0.1482092852    0.0000088905 | 
    1283 |     0.1482143167    0.0000088764 | 
    1284 |     0.1482303968    0.0000088314 | 
    1285 |     0.1482351991    0.0000088180 | 
                          ------
    2560 |     0.9423930371    0.0000000000 | 

                       |  Abs_value |  Threshold | Converged
     Delta_Free_energy |   3.53E-04 |   1.00E-06 |        No
     Delta_Energy      |   3.53E-04 |   1.00E-04 |        No
     Delta_Entropy     |   4.12E-08 |   1.00E-04 |       Yes
     Commutator        |   8.65E-06 |   1.00E-05 |       Yes
     Delta_Fermi_level |   4.89E-04 |   1.00E-03 |       Yes

  Line search of the free energy minimum:
  Step_type        Step             Free_energy   Predicted_free_energy
.   Initial    0.000000    -3647.22752548970720
.    Trial1    0.254213    -3647.22759079508296
.    Trial2    0.539078    -3647.22760198451579
. Quadratic    0.445298    -3647.22760553284024    -3647.22760553473108

--------------------------------------------------------------------------------
  Iter                              Commutator    Free_energy(A=E-TS)     DeltaA
#    3                          0.000005537560   -3647.22760553284024  -8.00E-05

Step                       =       0.445297992749
Energy                     =   -3647.227580751680
Entropy (-TS)              =      -0.000024781373
Free energy (A=E-TS)       =   -3647.227605532840
Est. 0K Energy 0.5*(E+A)   =   -3647.227593142260
Residual Non-orthogonality =       0.000000000000
Residual N_electrons       =       0.000000000213

Spin          Integrated_Ne            Fermi_level     Delta_Fermi_level
   1      2559.999999998080         0.110736548808             -6.41E-04

                           Spin 1          
     Orb      H-eigenvalues     Occupancies
       1 |    -0.6144703298    1.0000000000 | 
                          ------
    1276 |     0.0740836204    0.9999905933 | 
    1277 |     0.0743215594    0.9999898593 | 
    1278 |     0.0746325828    0.9999888128 | 
    1279 |     0.0746346254    0.9999888056 | 
    1280 |     0.0748740507    0.9999879265 | 
                 - Gap at zero temperature -
    1281 |     0.1475651786    0.0000088990 | 
    1282 |     0.1475754189    0.0000088703 | 
    1283 |     0.1475805364    0.0000088560 | 
    1284 |     0.1475975483    0.0000088085 | 
    1285 |     0.1476024582    0.0000087949 | 
                          ------
    2560 |     0.9413791704    0.0000000000 | 

                       |  Abs_value |  Threshold | Converged
     Delta_Free_energy |   8.00E-05 |   1.00E-06 |        No
     Delta_Energy      |   8.00E-05 |   1.00E-04 |       Yes
     Delta_Entropy     |   4.84E-08 |   1.00E-04 |       Yes
     Commutator        |   5.54E-06 |   1.00E-05 |       Yes
     Delta_Fermi_level |   6.41E-04 |   1.00E-03 |       Yes

  Line search of the free energy minimum:
  Step_type        Step             Free_energy   Predicted_free_energy
.   Initial    0.000000    -3647.22760553284024
.    Trial1    0.445298    -3647.22762393693711
.    Trial2    0.657175    -3647.22758061578952
. Quadratic    0.277901    -3647.22763441888992    -3647.22763441752977

--------------------------------------------------------------------------------
  Iter                              Commutator    Free_energy(A=E-TS)     DeltaA
#    4                          0.000003333137   -3647.22763441888992  -2.89E-05

Step                       =       0.277900632027
Energy                     =   -3647.227609622543
Entropy (-TS)              =      -0.000024796357
[...]
 C   160 -- C   385       -0.10      5.37000
 C   159 -- C   384       -0.10      5.37000
 C   158 -- C   383       -0.10      5.37000
 C   157 -- C   382       -0.10      5.37000
 C   156 -- C   381       -0.10      5.37000
 C   155 -- C   355       -0.10      5.37000
 C   154 -- C   354       -0.10      5.37000
 C   153 -- C   353       -0.10      5.37000
 C   152 -- C   352       -0.10      5.37000
 C   151 -- C   351       -0.10      5.37000
 C   140 -- C   335       -0.10      5.37000
 C   139 -- C   334       -0.10      5.37000
 C   138 -- C   333       -0.10      5.37000
 C   137 -- C   332       -0.10      5.37000
 C   136 -- C   331       -0.10      5.37000
 C   115 -- C   325       -0.10      5.37000
 C   114 -- C   324       -0.10      5.37000
 C   113 -- C   323       -0.10      5.37000
 C   112 -- C   322       -0.10      5.37000
 C   111 -- C   321       -0.10      5.37000
 C   219 -- C   569       -0.10      5.37202
 C   218 -- C   568       -0.10      5.37202
 C   217 -- C   567       -0.10      5.37202
 C   216 -- C   566       -0.10      5.37202
 C   250 -- C   540       -0.10      5.37202
 C   249 -- C   539       -0.10      5.37202
 C   248 -- C   538       -0.10      5.37202
 C   247 -- C   537       -0.10      5.37202
 C   246 -- C   536       -0.10      5.37202
 C   220 -- C   570       -0.10      5.37202
 C   285 -- C   580       -0.10      5.37202
 C   284 -- C   579       -0.10      5.37202
 C   283 -- C   578       -0.10      5.37202
 C   282 -- C   577       -0.10      5.37202
 C   281 -- C   576       -0.10      5.37202
 C   260 -- C   605       -0.10      5.37202
 C   259 -- C   604       -0.10      5.37202
 C   258 -- C   603       -0.10      5.37202
 C   257 -- C   602       -0.10      5.37202
 C   256 -- C   601       -0.10      5.37202
 C   220 -- C   515       -0.10      5.37202
 C   219 -- C   514       -0.10      5.37202
 C   218 -- C   513       -0.10      5.37202
 C   217 -- C   512       -0.10      5.37202
 C   216 -- C   511       -0.10      5.37202
 C   195 -- C   540       -0.10      5.37202
 C   195 -- C   500       -0.10      5.37202
 C   194 -- C   539       -0.10      5.37202
 C   194 -- C   499       -0.10      5.37202
 C   193 -- C   538       -0.10      5.37202
 C   193 -- C   498       -0.10      5.37202
 C   192 -- C   537       -0.10      5.37202
 C   192 -- C   497       -0.10      5.37202
 C   191 -- C   536       -0.10      5.37202
 C   191 -- C   496       -0.10      5.37202
 C   180 -- C   515       -0.10      5.37202
 C   179 -- C   514       -0.10      5.37202
 C   178 -- C   513       -0.10      5.37202
 C   177 -- C   512       -0.10      5.37202
 C   176 -- C   511       -0.10      5.37202
 C    11 -- C   331       -0.10      5.37202
 C   205 -- C   550       -0.10      5.37202
 C   204 -- C   549       -0.10      5.37202
 C   203 -- C   548       -0.10      5.37202
 C   202 -- C   547       -0.10      5.37202
 C   201 -- C   546       -0.10      5.37202
 C    95 -- C   425       -0.10      5.37202
 C    95 -- C   365       -0.10      5.37202
 C    94 -- C   424       -0.10      5.37202
 C    94 -- C   364       -0.10      5.37202
 C    93 -- C   423       -0.10      5.37202
 C    93 -- C   363       -0.10      5.37202
 C    92 -- C   422       -0.10      5.37202
 C    92 -- C   362       -0.10      5.37202
 C    91 -- C   421       -0.10      5.37202
 C    91 -- C   361       -0.10      5.37202
 C    40 -- C   365       -0.10      5.37202
 C    39 -- C   364       -0.10      5.37202
 C    38 -- C   363       -0.10      5.37202
 C    37 -- C   362       -0.10      5.37202
 C    36 -- C   361       -0.10      5.37202
 C    15 -- C   335       -0.10      5.37202
 C    65 -- C   395       -0.10      5.37202
 C    65 -- C   345       -0.10      5.37202
 C    64 -- C   394       -0.10      5.37202
 C    64 -- C   344       -0.10      5.37202
 C    63 -- C   393       -0.10      5.37202
 C    30 -- C   355       -0.10      5.37202
 C    63 -- C   343       -0.10      5.37202
 C    62 -- C   392       -0.10      5.37202
 C    30 -- C   325       -0.10      5.37202
 C    14 -- C   334       -0.10      5.37202
 C    62 -- C   342       -0.10      5.37202
 C    61 -- C   391       -0.10      5.37202
 C    29 -- C   354       -0.10      5.37202
 C    61 -- C   341       -0.10      5.37202
 C    29 -- C   324       -0.10      5.37202
 C   260 -- C   550       -0.10      5.37202
 C   259 -- C   549       -0.10      5.37202
 C    28 -- C   353       -0.10      5.37202
 C   258 -- C   548       -0.10      5.37202
 C   257 -- C   547       -0.10      5.37202
 C   256 -- C   546       -0.10      5.37202
 C    28 -- C   323       -0.10      5.37202
 C    27 -- C   352       -0.10      5.37202
 C    13 -- C   333       -0.10      5.37202
 C    27 -- C   322       -0.10      5.37202
 C   120 -- C   395       -0.10      5.37202
 C    26 -- C   351       -0.10      5.37202
 C   119 -- C   394       -0.10      5.37202
 C   118 -- C   393       -0.10      5.37202
 C    55 -- C   335       -0.10      5.37202
 C   117 -- C   392       -0.10      5.37202
 C    26 -- C   321       -0.10      5.37202
 C   116 -- C   391       -0.10      5.37202
 C    54 -- C   334       -0.10      5.37202
 C    12 -- C   332       -0.10      5.37202
 C    53 -- C   333       -0.10      5.37202
 C   230 -- C   580       -0.10      5.37202
 C   230 -- C   525       -0.10      5.37202
 C   229 -- C   579       -0.10      5.37202
 C   229 -- C   524       -0.10      5.37202
 C   228 -- C   578       -0.10      5.37202
 C    52 -- C   332       -0.10      5.37202
 C   228 -- C   523       -0.10      5.37202
 C   227 -- C   577       -0.10      5.37202
 C   227 -- C   522       -0.10      5.37202
 C   226 -- C   576       -0.10      5.37202
 C   226 -- C   521       -0.10      5.37202
 C    51 -- C   331       -0.10      5.37202
 C    23 -- C   478       -0.10      5.37202
 C    49 -- C   469       -0.10      5.37202
 C    48 -- C   468       -0.10      5.37202
 C    47 -- C   467       -0.10      5.37202
 C    22 -- C   477       -0.10      5.37202
 C    46 -- C   466       -0.10      5.37202
 C    21 -- C   476       -0.10      5.37202
 C    85 -- C   355       -0.10      5.37202
 C    84 -- C   354       -0.10      5.37202
 C    83 -- C   353       -0.10      5.37202
 C    82 -- C   352       -0.10      5.37202
 C    81 -- C   351       -0.10      5.37202
 C    55 -- C   385       -0.10      5.37202
 C    54 -- C   384       -0.10      5.37202
 C    25 -- C   480       -0.10      5.37202
 C    53 -- C   383       -0.10      5.37202
 C    52 -- C   382       -0.10      5.37202
 C    51 -- C   381       -0.10      5.37202
 C    24 -- C   479       -0.10      5.37202
 C    50 -- C   470       -0.10      5.37202
 C    24 -- C   449       -0.10      5.37202
 C     6 -- C   416       -0.10      5.37202
 C    23 -- C   448       -0.10      5.37202
 C    22 -- C   447       -0.10      5.37202
 C    10 -- C   470       -0.10      5.37202
 C     5 -- C   450       -0.10      5.37202
 C    21 -- C   446       -0.10      5.37202
 C    10 -- C   420       -0.10      5.37202
 C     9 -- C   469       -0.10      5.37202
 C     9 -- C   419       -0.10      5.37202
 C     8 -- C   468       -0.10      5.37202
 C     4 -- C   449       -0.10      5.37202
 C   150 -- C   440       -0.10      5.37202
 C   149 -- C   439       -0.10      5.37202
 C   148 -- C   438       -0.10      5.37202
 C   147 -- C   437       -0.10      5.37202
 C     8 -- C   418       -0.10      5.37202
 C   146 -- C   436       -0.10      5.37202
 C     2 -- C   447       -0.10      5.37202
 C   135 -- C   460       -0.10      5.37202
 C     7 -- C   467       -0.10      5.37202
 C   134 -- C   459       -0.10      5.37202
 C   133 -- C   458       -0.10      5.37202
 C   132 -- C   457       -0.10      5.37202
 C   131 -- C   456       -0.10      5.37202
 C     7 -- C   417       -0.10      5.37202
 C     1 -- C   446       -0.10      5.37202
 C     6 -- C   466       -0.10      5.37202
 C    25 -- C   450       -0.10      5.37202
 C     3 -- C   448       -0.10      5.37202
 C   106 -- C   436       -0.10      5.37202
 C   106 -- C   376       -0.10      5.37202
 C    80 -- C   410       -0.10      5.37202
 C    79 -- C   409       -0.10      5.37202
 C    78 -- C   408       -0.10      5.37202
 C    77 -- C   407       -0.10      5.37202
 C    76 -- C   406       -0.10      5.37202
 C   135 -- C   410       -0.10      5.37202
 C   134 -- C   409       -0.10      5.37202
 C   133 -- C   408       -0.10      5.37202
 C   132 -- C   407       -0.10      5.37202
 C   131 -- C   406       -0.10      5.37202
 C   110 -- C   440       -0.10      5.37202
 C   110 -- C   380       -0.10      5.37202
 C   109 -- C   439       -0.10      5.37202
 C   109 -- C   379       -0.10      5.37202
 C   108 -- C   438       -0.10      5.37202
 C   108 -- C   378       -0.10      5.37202
 C   107 -- C   437       -0.10      5.37202
 C   107 -- C   377       -0.10      5.37202
 C   215 -- C   635       -0.10      5.38000
 C   214 -- C   634       -0.10      5.38000
 C   213 -- C   633       -0.10      5.38000
 C   212 -- C   632       -0.10      5.38000
 C   211 -- C   631       -0.10      5.38000
 C   190 -- C   620       -0.10      5.38000
 C   189 -- C   619       -0.10      5.38000
 C   188 -- C   618       -0.10      5.38000
 C   187 -- C   617       -0.10      5.38000
 C   186 -- C   616       -0.10      5.38000
 C   175 -- C   595       -0.10      5.38000
 C   174 -- C   594       -0.10      5.38000
 C   173 -- C   593       -0.10      5.38000
 C   172 -- C   592       -0.10      5.38000
 C   171 -- C   591       -0.10      5.38000
 C   245 -- C   640       -0.10      5.38000
 C   244 -- C   639       -0.10      5.38000
 C   243 -- C   638       -0.10      5.38000
 C   242 -- C   637       -0.10      5.38000
 C   241 -- C   636       -0.10      5.38000
==================================================


=================== Orbital energy and occupancy information ===================

      Total number of orbitals:    2560
        Occupancy sum (kernel):    1280.000000001
   Occupancy sum (eigenvalues):    1280.000000001
                 HOMO-LUMO gap:       0.000005110 Eh
                 Mid-gap level:       0.212352480 Eh

                        Orbital | Energy (Eh) | Occupancy
                            1    -0.541286931   1.0000000
                        .......   ...........   .........
                         1272     0.140305147   0.9999893
                         1273     0.140771009   0.9999876
                         1274     0.140775265   0.9999876
                         1275     0.141806484   0.9999828
                         1276     0.141812606   0.9999828
                         1277     0.142277988   0.9999800
                         1278     0.142284107   0.9999800
                         1279     0.142357632   0.9999795
                         1280     0.142829291   0.9999762
                         1281     0.212349925   0.0000122
                        ....... -- gap at 0K -- .........
                         1282     0.212355035   0.0000122
                         1283     0.212501187   0.0000116
                         1284     0.212502847   0.0000116
                         1285     0.212593113   0.0000113
                         1286     0.212597547   0.0000113
                         1287     0.212602632   0.0000113
                         1288     0.212752619   0.0000107
                         1289     0.212754305   0.0000107
                         1290     0.212821504   0.0000105
                         1291     0.212826489   0.0000105
                        .......   ...........   .........
                         2560     1.072703420   0.0000000

================================================================================

===================== Writing canonical molecular orbitals =====================
| Orbital  Energy (eV)  Norm     |
| HOMO      5.77833548  1.000000 | Writing "4.158936_GO_manual_4x64graphite_HOMO.cube" ... done
Writing "4.158936_GO_manual_4x64graphite_HOMO.dx" ... done
| LUMO      5.77847452  1.000000 | Writing "4.158936_GO_manual_4x64graphite_LUMO.cube" ... done
Writing "4.158936_GO_manual_4x64graphite_LUMO.dx" ... done
================================================================================
 
===================== Density of States (DOS) calculation ======================
Writing "4.158936_GO_manual_4x64graphite_DOS.txt" ...  done
================================================================================
 
Writing bands to file "4.158936_GO_manual_4x64graphite.val_bands" ... done
 
================ Projected Density of States (pDOS) calculation ================
 
Constructing AM resolved functions  ...... done
Writing NGWF plot files in formats: CUBE DX ...  done
 
Performing overlap integrals ...  done
 
Computing pDOS weights ...  done
 
All bands spilling parameter =   2.79 %
Occupancy-weighted spilling parameter =   0.98 %
 
 => Outputting data for OptaDOS <=
 
Writing pDOS weights to file "4.158936_GO_manual_4x64graphite.val_pdos_bin" ... done
 
Writing band gradients to file "4.158936_GO_manual_4x64graphite.val_dome_bin" ... done
 
Writing Castep output cell file to "4.158936_GO_manual_4x64graphite-out.cell" ... done
 
 => Computing Gaussian smeared pDOS <= 
Writing "4.158936_GO_manual_4x64graphite_PDOS.txt" ...  done
 
 => Computing Occupancy-weighted Gaussian smeared pDOS <= 
Writing "4.158936_GO_manual_4x64graphite_occ_PDOS.txt" ...  done
  => Band centres: 
 S band centre of group 1:  -15.620992 eV
 P band centre of group 1:   -8.496882 eV
  Band centres done. <=
  => Integrated number of electrons in each AM band: 
 S num electrons of group 1:  575.379163
 P num electrons of group 1: 1959.511955
  Integrated number of electrons done. <=
================================================================================

------------------------------ TIMING INFORMATION ------------------------------
AVERAGE TIME:    2694.342s on     40 node(s)                                    
TOTAL TIME:      2694.342s on     40 node(s)                                    
================= AVERAGE TIMINGS FROM ALL NODES (CUMULATIVE) ==================
|| TAG                                    #calls    cpu time   %total  Gflops ||
|| work_imbalance                       :     1        0.00s   0.000%  ------ ||
|| paw_tcore_density                    :     1        0.01s   0.000%  ------ ||
|| paw_tcore_hartree_on_grid            :     1        0.01s   0.000%  ------ ||
|| paw_sphere_density_on_grid           :     1        0.01s   0.001%  ------ ||
|| sparse_set_to_garbage                :   135        0.02s   0.001%  ------ ||
|| paw_dij_hartree                      :   266        0.03s   0.001%  ------ ||
|| pseudo_make_structure_factor         :     1        0.06s   0.002%  ------ ||
|| basis_extract_function_from_box      :  1536        0.07s   0.002%  ------ ||
|| paw_species_calc_proj_prec_mat       :     1        0.12s   0.005%  ------ ||
|| density_init_guess_real              :     1        0.17s   0.006%  ------ ||
|| paw_dataset_init                     :     1        0.24s   0.009%  ------ ||
|| ngwfs_initialise_from_radial         :     2        0.67s   0.025%  ------ ||
|| restart_kernel_write                 :    13        0.79s   0.029%  ------ ||
|| sparse_init                          :     1        0.85s   0.031%  ------ ||
|| dense_normal_eigensolve              :     1        1.27s   0.047%  ------ ||
|| hartree_on_grid                      :   201        1.37s   0.051%  ------ ||
|| projectors_init_fftbox_recip         :   121        2.36s   0.088%  ------ ||
|| fourier_apply_box_pair               :  2272        3.77s   0.140% 559.532 ||
|| ewald_calculate_energy               :     1        3.84s   0.143%  ------ ||
|| basis_copy_function_to_box           : 19136        4.11s   0.152%  ------ ||
|| augmentation_screen_dij              :   206        4.54s   0.168%  ------ ||
|| sparse_embed_hotelling_invert_embed  :    23        6.55s   0.243%  ------ ||
|| sw_init                              :     1        6.73s   0.250%  ------ ||
|| ngwf_gradient_coeffs                 :    12        8.39s   0.311%  ------ ||
|| sparse_trace                         :  2404        9.88s   0.367%  ------ ||
|| cell_grid_extract_box_real           :  8044       13.08s   0.486%  ------ ||
|| fourier_apply_cell_backward          :  6202       15.68s   0.582%  58.412 ||
|| fourier_apply_cell_forward           :  5801       16.14s   0.599%  53.103 ||
|| cell_grid_deposit_box_real           : 25904       16.19s   0.601%  ------ ||
|| paw_dij_xc                           :   266       17.95s   0.666%  ------ ||
|| aug_nonlocal_mat                     :   254       25.16s   0.934%  ------ ||
|| density_fftbox_deposit_to_cell       : 12864       32.24s   1.197%  ------ ||
|| augmentation_density_on_grid         :   201       37.16s   1.379%  ------ ||
|| function_ops_brappd_ketppd           :    48       39.06s   1.450%  ------ ||
|| projectors_func_ovlp_box             :    24       41.86s   1.554%  ------ ||
|| hamiltonian_energy_components        :     3       42.88s   1.591%  ------ ||
|| eigenstates_pdos                     :     1       45.83s   1.701%  ------ ||
|| eigenstates_calculate                :     1       50.04s   1.857%  ------ ||
|| nlxc_vdw_energy                      :   400       65.35s   2.426%  ------ ||
|| integrals_kinetic                    :    23       65.69s   2.438%  ------ ||
|| xc_energy_potential                  :   200       67.70s   2.513%  ------ ||
|| dense_eigensolve                     :   174       84.19s   3.125%  ------ ||
|| properties_calculate                 :     1       92.33s   3.427%  ------ ||
|| potential_apply_to_ngwf_batch        :   248       96.14s   3.568%  ------ ||
|| sparse_product                       :  2460      101.22s   3.757%  ------ ||
|| restart_ngwfs_tightbox_output        :    11      129.81s   4.818%  ------ ||
|| basis_dot_function_with_box          : 5.047M     136.78s   5.076%  ------ ||
|| projectors_gradient_batch            :    48      163.81s   6.080%  ------ ||
|| integrals_locpot_mat_els_batch       :   248      179.80s   6.673%  ------ ||
|| fourier_apply_box                    : 60560      187.35s   6.953% 977.978 ||
|| edft_diag_ngwf_ham                   :   173      190.29s   7.063%  ------ ||
|| projectors_grad_precond_batch        :    48      241.89s   8.978%  ------ ||
|| density_fftbox_interpolate_multiply  : 12864      249.18s   9.248%  ------ ||
|| integrals_locpot_dbl_grid            :    62      276.98s  10.280%  ------ ||
|| density_batch_interp_deposit         :   804      311.41s  11.558%  ------ ||
|| edft_apply_smearing_operator         :   173      371.86s  13.802%  ------ ||
|| basis_add_function_to_box            : 14.60M     381.38s  14.155%  ------ ||
|| ngwf_gradient_build_batch            :    48      442.00s  16.405%  ------ ||
|| density_batch_row_sums               :   804      519.54s  19.283%  ------ ||
|| ngwf_gradient_batch                  :    48      596.32s  22.132%  ------ ||
|| ngwf_gradient_lnv                    :    12      617.78s  22.929%  ------ ||
|| density_on_dbl_grid                  :   201      842.59s  31.273%  ------ ||
|| hamiltonian_lhxc_calculate           :   196      927.03s  34.406%  ------ ||
|| edft_calculate                       :    12     1561.37s  57.950%  ------ ||
|| ngwf_cg_optimise                     :     1     2577.79s  95.674%  ------ ||
|| total_time                           :     1     2694.34s 100.000%  ------ ||
================================================================================
Overhead of generating timer report: 
- 0 ms averaging over threads,
- 5 ms ensuring consistency across MPI ranks,
- 0 ms printing in order.

Job completed: 05-03-2020 16:20 (-0000)

