 +---------------------------------------------------------------+
 |                                                               |
 |        ####### #     # ####### ####### ####### ######         |
 |        #     # ##    # #          #    #       #     #        |
 |        #     # # #   # #          #    #       #     #        |
 |        #     # #  #  # #####      #    #####   ######         |
 |        #     # #   # # #          #    #       #              |
 |        #     # #    ## #          #    #       #              |
 |        ####### #     # #######    #    ####### #              |
 |                                                               |
 |        Linear-Scaling Ab Initio Total Energy Program          |
 |                                                               |
 |          Release for academic collaborators of ODG            |
 |                                             Version 5.3.2.12  |
 |                                                               |
 +---------------------------------------------------------------+
 |                                                               |
 |  Authors:                                                     |
 |  Jacek Dziedzic, Peter D. Haynes, Nicholas D. M. Hine,        |
 |  Arash. A. Mostofi, Mike C. Payne and Chris-Kriton Skylaris   |
 |                                                               |
 |  Contributors:                                                |
 |  J. Aarons, L. Andrinopoulos, P. W. Avraam, R. A. Bell,       |
 |  A. Bhandari, G. A. Bramley, R. J. Charlton, S. J. Clark,     |
 |  R. J. Clements, G. C. Constantinescu, F. Corsetti,           |
 |  N. Corsini, O. Dieguez, S. M. M. Dubois, K. K. B. Duff,      |
 |  J. M. Escartin, A. Greco, H. Helal, Q. O. Hill, L. P. Lee,   |
 |  J.-H. Li, E. B. Linscott, G. Moynihan, D. D. O`Regan,        |
 |  O. K. Okan, M. J. S. Phipps, C. J. Pickard,                  |
 |  J. C. A. Prentice, M. I. J. Probert, L. E. Ratcliff,         |
 |  M. Robinson, A. Ruiz Serrano, J. S. Spencer, E. W. Tait,     |
 |  G. Teobaldi, D. Turban, V. Vitale, K. A. Wilkinson,          |
 |  C. Weber, J. C. Womack, N. Yeung and T. J. Zuehlsdorff       |
 |                                                               |
 |                                   Copyright (c) 2004-2020     |
 |                                                               |
 |  Please cite:                                                 |
 |  "Introducing ONETEP: Linear-scaling density functional       |
 |   simulations on parallel computers".                         |
 |   C.-K. Skylaris, P. D. Haynes, A. A. Mostofi, M. C. Payne.   |
 |   J. Chem. Phys. 122 084119 (2005).                           |
 |                                                               |
 |          in all publications arising from your use of ONETEP. |
 |                                                               |
 +---------------------------------------------------------------+
 |                                                               |
 |   ONETEP is based on developments described in the following  |
 |   publications:                                               |
 |                                                               |
 |  "Nonorthogonal generalized Wannier function pseudopotential  |
 |   plane-wave method".                                         |
 |   C.-K. Skylaris, A. A. Mostofi, P. D. Haynes, O. Dieguez,    |
 |   M. C. Payne.                                                |
 |   Phys. Rev. B 66 035119 (2002).                              |
 |                                                               |
 |  "Preconditioned iterative minimization for linear-scaling    |
 |   electronic structure calculations".                         |
 |   A. A. Mostofi, P. D. Haynes, C.-K. Skylaris, M. C. Payne.   |
 |   J. Chem. Phys. 119(17), pp.8842-8848 (2003).                |
 |                                                               |
 |  "Total-energy calculations on a real space grid with         |
 |   localized functions and a plane-wave basis".                |
 |   A. A. Mostofi, C.-K. Skylaris, P. D. Haynes, M. C. Payne.   |
 |   Comput. Phys. Commun. 147, pp.788-802 (2002).               |
 |                                                               |
 |  "Accurate kinetic energy evaluation in electronic structure  |
 |   calculations with localized functions on real space grids"  |
 |   C.-K. Skylaris, A. A. Mostofi, P. D. Haynes, C. J. Pickard, |
 |   M. C. Payne.                                                |
 |   Comput. Phys. Commun. 140, pp.315-322 (2001).               |
 |                                                               |
 |  "Accurate ionic forces and geometry optimization in linear-  |
 |   scaling density-functional theory with local orbitals"      |
 |   N. D. M. Hine, M. Robinson, P. D. Haynes, C.-K. Skylaris,   |
 |   M. C. Payne, and A. A. Mostofi.                             |
 |   Phys. Rev. B 83 195102 (2011).                              |
 |                                                               |
 +---------------------------------------------------------------+

Job started: 05-03-2020 17:20 (-0000)
 
Reading parameters from file "4.69556_GO_manual_4x64graphite.dat" ...

WARNING: "cutoff_energy" not specified, but "psinc_spacing" specified.
         Using the latter to set the KE cutoff energy to  732.32021eV,
         thus *overriding* the default.

... done

If your calculation crashes here, before "Checking processes and threads..."
is displayed, then your stack size is insufficient.
If so, use "ulimit -s unlimited" at runtime.
You can disable this check with "check_stack_size F".

Checking processes and threads...
   Determining the default number of threads...
      No default threads set at compilation time: defaulting to 1.
      OpenMP library call suggests 4 threads.
      Hybrid MPI-OpenMP compilation detected.
      Number of MPI processes > 1.
      OMP_NUM_THREADS environment variable present and
      its value matches the one obtained from the OpenMP library call.
      Using this value as default.
      Default threads: 4
      Default applies to threads_max and threads_num_fftboxes.
      Settings in the input file override this default.
   ... done

   Running with 40 MPI processes.
   There are 10 MPI processes running on the same node as the root process.
   Each MPI process is using: 
               1 threads for simulation cell FFTs.
               1 threads for parallel FFT box operations.
               4 threads for loops over batched FFT box operations.
               4 threads in other parallel regions.
... done

Basic input checks...
Resetting ngwf_cg_rotate to TRUE for EDFT calculations
... done

Reading geometry and species blocks from file "4.69556_GO_manual_4x64graphite.dat" ...
    
  PSINC grid spacing along a1 set to   0.511215680000a0 from input file.
  PSINC grid spacing along a2 set to   0.531284090000a0 from input file.
  PSINC grid spacing along a3 set to   0.507048030000a0 from input file.
  Number of PPD points along a3 set to 1.  This is 
  the default value, it may have been provided also in the input file.
... done
 Writing xyz coordinates to file "4.69556_GO_manual_4x64graphite.xyz" ... done


--------------------------------------------------------------------------------
---------------------------------- INPUT FILE ----------------------------------
--------------------------------------------------------------------------------

task : singlepoint                                                              
do_properties : true                                                            
dx_format T                                                                     
edft T                                                                          
output_detail VERBOSE                                                           
write_xyz T                                                                     
xc_functional OPTPBE                                                            
PSINC_SPACING 0.51121568 0.53128409 0.50704803                                  
paw T                                                                           
pdos_max_l = 2                                                                  
dos_smear  0.1 eV                                                               
popn_calculate T                                                                
PDOS_PSEUDOATOMIC T                                                             
PDOS_REDUCE_SWS F                                                               
PDOS_CONSTRUCT_BASIS F                                                          
PDOS_LOWDIN T                                                                   
PDOS_ORTH_ATOM_BLOCKS F                                                         
PDOS_LCAO_OPTIMIZE F                                                            
pdos_optados_output T                                                           
homo_plot 0                                                                     
lumo_plot 0                                                                     
homo_dens_plot -1                                                               
lumo_dens_plot -1                                                               
%BLOCK SPECIES                                                                  
C C 6 4 9.0                                                                     
%ENDBLOCK SPECIES                                                               
%BLOCK SPECIES_POT                                                              
C "~/pp/paw/c_pbe_abinit.paw"                                                   
%ENDBLOCK SPECIES_POT                                                           
%BLOCK SPECIES_ATOMIC_SET                                                       
C "SOLVE conf=2s2 2p2"                                                          
%ENDBLOCK SPECIES_ATOMIC_SET                                                    
%BLOCK LATTICE_CART                                                             
32.21  0.00  0.00                                                               
0.00 18.59  0.00                                                                
0.00  0.00 88.73                                                                
%ENDBLOCK LATTICE_CART                                                          
%BLOCK POSITIONS_ABS                                                            
C  0.00  0.00  4.44                                                             
C  0.00  0.00 22.18                                                             
C  0.00  0.00 39.93                                                             
C  0.00  0.00 57.68                                                             
C  0.00  0.00 75.42                                                             
C  0.00  4.65  4.44                                                             
C  0.00  4.65 22.18                                                             
C  0.00  4.65 39.93                                                             
C  0.00  4.65 57.68                                                             
C  0.00  4.65 75.42                                                             
C  4.03  2.32  4.44                                                             
C  4.03  2.32 22.18                                                             
C  4.03  2.32 39.93                                                             
C  4.03  2.32 57.68                                                             
C  4.03  2.32 75.42                                                             
C  8.05  0.00  4.44                                                             
C  8.05  0.00 22.18                                                             
C  8.05  0.00 39.93                                                             
C  8.05  0.00 57.68                                                             
C  8.05  0.00 75.42                                                             
C  0.00  9.30  4.44                                                             
C  0.00  9.30 22.18                                                             
C  0.00  9.30 39.93                                                             
C  0.00  9.30 57.68                                                             
C  0.00  9.30 75.42                                                             
C  4.03  6.97  4.44                                                             
C  4.03  6.97 22.18                                                             
C  4.03  6.97 39.93                                                             
C  4.03  6.97 57.68                                                             
C  4.03  6.97 75.42                                                             
C  8.05  4.65  4.44                                                             
C  8.05  4.65 22.18                                                             
C  8.05  4.65 39.93                                                             
C  8.05  4.65 57.68                                                             
C  8.05  4.65 75.42                                                             
C 12.08  2.32  4.44                                                             
C 12.08  2.32 22.18                                                             
C 12.08  2.32 39.93                                                             
C 12.08  2.32 57.68                                                             
C 12.08  2.32 75.42                                                             
C 16.10  0.00  4.44                                                             
C 16.10  0.00 22.18                                                             
C 16.10  0.00 39.93                                                             
C 16.10  0.00 57.68                                                             
C 16.10  0.00 75.42                                                             
C  0.00 13.95  4.44                                                             
C  0.00 13.95 22.18                                                             
C  0.00 13.95 39.93                                                             
C  0.00 13.95 57.68                                                             
C  0.00 13.95 75.42                                                             
C  4.03 11.62  4.44                                                             
C  4.03 11.62 22.18                                                             
C  4.03 11.62 39.93                                                             
C  4.03 11.62 57.68                                                             
C  4.03 11.62 75.42                                                             
C  8.05  9.30  4.44                                                             
C  8.05  9.30 22.18                                                             
C  8.05  9.30 39.93                                                             
C  8.05  9.30 57.68                                                             
C  8.05  9.30 75.42                                                             
C 12.08  6.97  4.44                                                             
C 12.08  6.97 22.18                                                             
C 12.08  6.97 39.93                                                             
C 12.08  6.97 57.68                                                             
C 12.08  6.97 75.42                                                             
C 16.10  4.65  4.44                                                             
C 16.10  4.65 22.18                                                             
C 16.10  4.65 39.93                                                             
C 16.10  4.65 57.68                                                             
C 16.10  4.65 75.42                                                             
C 20.13  2.32  4.44                                                             
C 20.13  2.32 22.18                                                             
C 20.13  2.32 39.93                                                             
C 20.13  2.32 57.68                                                             
C 20.13  2.32 75.42                                                             
C 24.16  0.00  4.44                                                             
C 24.16  0.00 22.18                                                             
C 24.16  0.00 39.93                                                             
C 24.16  0.00 57.68                                                             
C 24.16  0.00 75.42                                                             
C  4.03 16.27  4.44                                                             
C  4.03 16.27 22.18                                                             
C  4.03 16.27 39.93                                                             
C  4.03 16.27 57.68                                                             
C  4.03 16.27 75.42                                                             
C  8.05 13.95  4.44                                                             
C  8.05 13.95 22.18                                                             
C  8.05 13.95 39.93                                                             
C  8.05 13.95 57.68                                                             
C  8.05 13.95 75.42                                                             
C 12.08 11.62  4.44                                                             
C 12.08 11.62 22.18                                                             
C 12.08 11.62 39.93                                                             
C 12.08 11.62 57.68                                                             
C 12.08 11.62 75.42                                                             
C 16.10  9.30  4.44                                                             
C 16.10  9.30 22.18                                                             
C 16.10  9.30 39.93                                                             
C 16.10  9.30 57.68                                                             
C 16.10  9.30 75.42                                                             
C 20.13  6.97  4.44                                                             
C 20.13  6.97 22.18                                                             
C 20.13  6.97 39.93                                                             
C 20.13  6.97 57.68                                                             
C 20.13  6.97 75.42                                                             
C 24.16  4.65  4.44                                                             
C 24.16  4.65 22.18                                                             
C 24.16  4.65 39.93                                                             
C 24.16  4.65 57.68                                                             
C 24.16  4.65 75.42                                                             
C 28.18  2.32  4.44                                                             
C 28.18  2.32 22.18                                                             
C 28.18  2.32 39.93                                                             
C 28.18  2.32 57.68                                                             
C 28.18  2.32 75.42                                                             
C 12.08 16.27  4.44                                                             
C 12.08 16.27 22.18                                                             
C 12.08 16.27 39.93                                                             
C 12.08 16.27 57.68                                                             
C 12.08 16.27 75.42                                                             
C 16.10 13.95  4.44                                                             
C 16.10 13.95 22.18                                                             
C 16.10 13.95 39.93                                                             
C 16.10 13.95 57.68                                                             
C 16.10 13.95 75.42                                                             
C 20.13 11.62  4.44                                                             
C 20.13 11.62 22.18                                                             
C 20.13 11.62 39.93                                                             
C 20.13 11.62 57.68                                                             
C 20.13 11.62 75.42                                                             
C 24.16  9.30  4.44                                                             
C 24.16  9.30 22.18                                                             
C 24.16  9.30 39.93                                                             
C 24.16  9.30 57.68                                                             
C 24.16  9.30 75.42                                                             
C 28.18  6.97  4.44                                                             
C 28.18  6.97 22.18                                                             
C 28.18  6.97 39.93                                                             
C 28.18  6.97 57.68                                                             
C 28.18  6.97 75.42                                                             
C 20.13 16.27  4.44                                                             
C 20.13 16.27 22.18                                                             
C 20.13 16.27 39.93                                                             
C 20.13 16.27 57.68                                                             
C 20.13 16.27 75.42                                                             
C 24.16 13.95  4.44                                                             
C 24.16 13.95 22.18                                                             
C 24.16 13.95 39.93                                                             
C 24.16 13.95 57.68                                                             
C 24.16 13.95 75.42                                                             
C 28.18 11.62  4.44                                                             
C 28.18 11.62 22.18                                                             
C 28.18 11.62 39.93                                                             
C 28.18 11.62 57.68                                                             
C 28.18 11.62 75.42                                                             
C 28.18 16.27  4.44                                                             
C 28.18 16.27 22.18                                                             
C 28.18 16.27 39.93                                                             
C 28.18 16.27 57.68                                                             
C 28.18 16.27 75.42                                                             
C  0.00  0.00 13.31                                                             
C  0.00  0.00 31.06                                                             
C  0.00  0.00 48.80                                                             
C  0.00  0.00 66.55                                                             
C  0.00  0.00 84.30                                                             
C  0.00  4.65 13.31                                                             
C  0.00  4.65 31.06                                                             
C  0.00  4.65 48.80                                                             
C  0.00  4.65 66.55                                                             
C  0.00  4.65 84.30                                                             
C  4.03  2.32 13.31                                                             
C  4.03  2.32 31.06                                                             
C  4.03  2.32 48.80                                                             
C  4.03  2.32 66.55                                                             
C  4.03  2.32 84.30                                                             
C  8.05  0.00 13.31                                                             
C  8.05  0.00 31.06                                                             
C  8.05  0.00 48.80                                                             
C  8.05  0.00 66.55                                                             
C  8.05  0.00 84.30                                                             
C  0.00  9.30 13.31                                                             
C  0.00  9.30 31.06                                                             
C  0.00  9.30 48.80                                                             
C  0.00  9.30 66.55                                                             
C  0.00  9.30 84.30                                                             
C  4.03  6.97 13.31                                                             
C  4.03  6.97 31.06                                                             
C  4.03  6.97 48.80                                                             
C  4.03  6.97 66.55                                                             
C  4.03  6.97 84.30                                                             
C  8.05  4.65 13.31                                                             
C  8.05  4.65 31.06                                                             
C  8.05  4.65 48.80                                                             
C  8.05  4.65 66.55                                                             
C  8.05  4.65 84.30                                                             
C 12.08  2.32 13.31                                                             
C 12.08  2.32 31.06                                                             
C 12.08  2.32 48.80                                                             
C 12.08  2.32 66.55                                                             
C 12.08  2.32 84.30                                                             
C 16.10  0.00 13.31                                                             
C 16.10  0.00 31.06                                                             
C 16.10  0.00 48.80                                                             
C 16.10  0.00 66.55                                                             
C 16.10  0.00 84.30                                                             
C  0.00 13.95 13.31                                                             
C  0.00 13.95 31.06                                                             
C  0.00 13.95 48.80                                                             
C  0.00 13.95 66.55                                                             
C  0.00 13.95 84.30                                                             
C  4.03 11.62 13.31                                                             
C  4.03 11.62 31.06                                                             
C  4.03 11.62 48.80                                                             
C  4.03 11.62 66.55                                                             
C  4.03 11.62 84.30                                                             
C  8.05  9.30 13.31                                                             
C  8.05  9.30 31.06                                                             
C  8.05  9.30 48.80                                                             
C  8.05  9.30 66.55                                                             
C  8.05  9.30 84.30                                                             
C 12.08  6.97 13.31                                                             
C 12.08  6.97 31.06                                                             
C 12.08  6.97 48.80                                                             
C 12.08  6.97 66.55                                                             
C 12.08  6.97 84.30                                                             
C 16.10  4.65 13.31                                                             
C 16.10  4.65 31.06                                                             
C 16.10  4.65 48.80                                                             
C 16.10  4.65 66.55                                                             
C 16.10  4.65 84.30                                                             
C 20.13  2.32 13.31                                                             
C 20.13  2.32 31.06                                                             
C 20.13  2.32 48.80                                                             
C 20.13  2.32 66.55                                                             
C 20.13  2.32 84.30                                                             
C 24.16  0.00 13.31                                                             
C 24.16  0.00 31.06                                                             
C 24.16  0.00 48.80                                                             
C 24.16  0.00 66.55                                                             
C 24.16  0.00 84.30                                                             
C  4.03 16.27 13.31                                                             
C  4.03 16.27 31.06                                                             
C  4.03 16.27 48.80                                                             
C  4.03 16.27 66.55                                                             
C  4.03 16.27 84.30                                                             
C  8.05 13.95 13.31                                                             
C  8.05 13.95 31.06                                                             
C  8.05 13.95 48.80                                                             
C  8.05 13.95 66.55                                                             
C  8.05 13.95 84.30                                                             
C 12.08 11.62 13.31                                                             
C 12.08 11.62 31.06                                                             
C 12.08 11.62 48.80                                                             
C 12.08 11.62 66.55                                                             
C 12.08 11.62 84.30                                                             
C 16.10  9.30 13.31                                                             
C 16.10  9.30 31.06                                                             
C 16.10  9.30 48.80                                                             
C 16.10  9.30 66.55                                                             
C 16.10  9.30 84.30                                                             
C 20.13  6.97 13.31                                                             
C 20.13  6.97 31.06                                                             
C 20.13  6.97 48.80                                                             
C 20.13  6.97 66.55                                                             
C 20.13  6.97 84.30                                                             
C 24.16  4.65 13.31                                                             
C 24.16  4.65 31.06                                                             
C 24.16  4.65 48.80                                                             
C 24.16  4.65 66.55                                                             
C 24.16  4.65 84.30                                                             
C 28.18  2.32 13.31                                                             
C 28.18  2.32 31.06                                                             
C 28.18  2.32 48.80                                                             
C 28.18  2.32 66.55                                                             
C 28.18  2.32 84.30                                                             
C 12.08 16.27 13.31                                                             
C 12.08 16.27 31.06                                                             
C 12.08 16.27 48.80                                                             
C 12.08 16.27 66.55                                                             
C 12.08 16.27 84.30                                                             
C 16.10 13.95 13.31                                                             
C 16.10 13.95 31.06                                                             
C 16.10 13.95 48.80                                                             
C 16.10 13.95 66.55                                                             
C 16.10 13.95 84.30                                                             
C 20.13 11.62 13.31                                                             
C 20.13 11.62 31.06                                                             
C 20.13 11.62 48.80                                                             
C 20.13 11.62 66.55                                                             
C 20.13 11.62 84.30                                                             
C 24.16  9.30 13.31                                                             
C 24.16  9.30 31.06                                                             
C 24.16  9.30 48.80                                                             
C 24.16  9.30 66.55                                                             
C 24.16  9.30 84.30                                                             
C 28.18  6.97 13.31                                                             
C 28.18  6.97 31.06                                                             
C 28.18  6.97 48.80                                                             
C 28.18  6.97 66.55                                                             
C 28.18  6.97 84.30                                                             
C 20.13 16.27 13.31                                                             
C 20.13 16.27 31.06                                                             
C 20.13 16.27 48.80                                                             
C 20.13 16.27 66.55                                                             
C 20.13 16.27 84.30                                                             
C 24.16 13.95 13.31                                                             
C 24.16 13.95 31.06                                                             
C 24.16 13.95 48.80                                                             
C 24.16 13.95 66.55                                                             
C 24.16 13.95 84.30                                                             
C 28.18 11.62 13.31                                                             
C 28.18 11.62 31.06                                                             
C 28.18 11.62 48.80                                                             
C 28.18 11.62 66.55                                                             
C 28.18 11.62 84.30                                                             
C 28.18 16.27 13.31                                                             
C 28.18 16.27 31.06                                                             
C 28.18 16.27 48.80                                                             
C 28.18 16.27 66.55                                                             
C 28.18 16.27 84.30                                                             
C  1.34  2.32  4.44                                                             
C  1.34  2.32 22.18                                                             
C  1.34  2.32 39.93                                                             
C  1.34  2.32 57.68                                                             
C  1.34  2.32 75.42                                                             
C  5.37  0.00  4.44                                                             
C  5.37  0.00 22.18                                                             
C  5.37  0.00 39.93                                                             
C  5.37  0.00 57.68                                                             
C  5.37  0.00 75.42                                                             
C  1.34  6.97  4.44                                                             
C  1.34  6.97 22.18                                                             
C  1.34  6.97 39.93                                                             
C  1.34  6.97 57.68                                                             
C  1.34  6.97 75.42                                                             
C  5.37  4.65  4.44                                                             
C  5.37  4.65 22.18                                                             
C  5.37  4.65 39.93                                                             
C  5.37  4.65 57.68                                                             
C  5.37  4.65 75.42                                                             
C  9.39  2.32  4.44                                                             
C  9.39  2.32 22.18                                                             
C  9.39  2.32 39.93                                                             
C  9.39  2.32 57.68                                                             
C  9.39  2.32 75.42                                                             
C 13.42  0.00  4.44                                                             
C 13.42  0.00 22.18                                                             
C 13.42  0.00 39.93                                                             
C 13.42  0.00 57.68                                                             
C 13.42  0.00 75.42                                                             
C  1.34 11.62  4.44                                                             
C  1.34 11.62 22.18                                                             
C  1.34 11.62 39.93                                                             
C  1.34 11.62 57.68                                                             
C  1.34 11.62 75.42                                                             
C  5.37  9.30  4.44                                                             
C  5.37  9.30 22.18                                                             
C  5.37  9.30 39.93                                                             
C  5.37  9.30 57.68                                                             
C  5.37  9.30 75.42                                                             
C  9.39  6.97  4.44                                                             
C  9.39  6.97 22.18                                                             
C  9.39  6.97 39.93                                                             
C  9.39  6.97 57.68                                                             
C  9.39  6.97 75.42                                                             
C 13.42  4.65  4.44                                                             
C 13.42  4.65 22.18                                                             
C 13.42  4.65 39.93                                                             
C 13.42  4.65 57.68                                                             
C 13.42  4.65 75.42                                                             
C 17.45  2.32  4.44                                                             
C 17.45  2.32 22.18                                                             
C 17.45  2.32 39.93                                                             
C 17.45  2.32 57.68                                                             
C 17.45  2.32 75.42                                                             
C 21.47  0.00  4.44                                                             
C 21.47  0.00 22.18                                                             
C 21.47  0.00 39.93                                                             
C 21.47  0.00 57.68                                                             
C 21.47  0.00 75.42                                                             
C  1.34 16.27  4.44                                                             
C  1.34 16.27 22.18                                                             
C  1.34 16.27 39.93                                                             
C  1.34 16.27 57.68                                                             
C  1.34 16.27 75.42                                                             
C  5.37 13.95  4.44                                                             
C  5.37 13.95 22.18                                                             
C  5.37 13.95 39.93                                                             
C  5.37 13.95 57.68                                                             
C  5.37 13.95 75.42                                                             
C  9.39 11.62  4.44                                                             
C  9.39 11.62 22.18                                                             
C  9.39 11.62 39.93                                                             
C  9.39 11.62 57.68                                                             
C  9.39 11.62 75.42                                                             
C 13.42  9.30  4.44                                                             
C 13.42  9.30 22.18                                                             
C 13.42  9.30 39.93                                                             
C 13.42  9.30 57.68                                                             
C 13.42  9.30 75.42                                                             
C 17.45  6.97  4.44                                                             
C 17.45  6.97 22.18                                                             
C 17.45  6.97 39.93                                                             
C 17.45  6.97 57.68                                                             
C 17.45  6.97 75.42                                                             
C 21.47  4.65  4.44                                                             
C 21.47  4.65 22.18                                                             
C 21.47  4.65 39.93                                                             
C 21.47  4.65 57.68                                                             
C 21.47  4.65 75.42                                                             
C 25.50  2.32  4.44                                                             
C 25.50  2.32 22.18                                                             
C 25.50  2.32 39.93                                                             
C 25.50  2.32 57.68                                                             
C 25.50  2.32 75.42                                                             
C 29.52  0.00  4.44                                                             
C 29.52  0.00 22.18                                                             
C 29.52  0.00 39.93                                                             
C 29.52  0.00 57.68                                                             
C 29.52  0.00 75.42                                                             
C  9.39 16.27  4.44                                                             
C  9.39 16.27 22.18                                                             
C  9.39 16.27 39.93                                                             
C  9.39 16.27 57.68                                                             
C  9.39 16.27 75.42                                                             
C 13.42 13.95  4.44                                                             
C 13.42 13.95 22.18                                                             
C 13.42 13.95 39.93                                                             
C 13.42 13.95 57.68                                                             
C 13.42 13.95 75.42                                                             
C 17.45 11.62  4.44                                                             
C 17.45 11.62 22.18                                                             
C 17.45 11.62 39.93                                                             
C 17.45 11.62 57.68                                                             
C 17.45 11.62 75.42                                                             
C 21.47  9.30  4.44                                                             
C 21.47  9.30 22.18                                                             
C 21.47  9.30 39.93                                                             
C 21.47  9.30 57.68                                                             
C 21.47  9.30 75.42                                                             
C 25.50  6.97  4.44                                                             
C 25.50  6.97 22.18                                                             
C 25.50  6.97 39.93                                                             
C 25.50  6.97 57.68                                                             
C 25.50  6.97 75.42                                                             
C 29.52  4.65  4.44                                                             
C 29.52  4.65 22.18                                                             
C 29.52  4.65 39.93                                                             
C 29.52  4.65 57.68                                                             
C 29.52  4.65 75.42                                                             
C 17.45 16.27  4.44                                                             
C 17.45 16.27 22.18                                                             
C 17.45 16.27 39.93                                                             
C 17.45 16.27 57.68                                                             
C 17.45 16.27 75.42                                                             
C 21.47 13.95  4.44                                                             
C 21.47 13.95 22.18                                                             
C 21.47 13.95 39.93                                                             
C 21.47 13.95 57.68                                                             
C 21.47 13.95 75.42                                                             
C 25.50 11.62  4.44                                                             
C 25.50 11.62 22.18                                                             
C 25.50 11.62 39.93                                                             
C 25.50 11.62 57.68                                                             
C 25.50 11.62 75.42                                                             
C 29.52  9.30  4.44                                                             
C 29.52  9.30 22.18                                                             
C 29.52  9.30 39.93                                                             
C 29.52  9.30 57.68                                                             
C 29.52  9.30 75.42                                                             
C 25.50 16.27  4.44                                                             
C 25.50 16.27 22.18                                                             
C 25.50 16.27 39.93                                                             
C 25.50 16.27 57.68                                                             
C 25.50 16.27 75.42                                                             
C 29.52 13.95  4.44                                                             
C 29.52 13.95 22.18                                                             
C 29.52 13.95 39.93                                                             
C 29.52 13.95 57.68                                                             
C 29.52 13.95 75.42                                                             
C  2.68  0.00 13.31                                                             
C  2.68  0.00 31.06                                                             
C  2.68  0.00 48.80                                                             
C  2.68  0.00 66.55                                                             
C  2.68  0.00 84.30                                                             
C  2.68  4.65 13.31                                                             
C  2.68  4.65 31.06                                                             
C  2.68  4.65 48.80                                                             
C  2.68  4.65 66.55                                                             
C  2.68  4.65 84.30                                                             
C  6.71  2.32 13.31                                                             
C  6.71  2.32 31.06                                                             
C  6.71  2.32 48.80                                                             
C  6.71  2.32 66.55                                                             
C  6.71  2.32 84.30                                                             
C 10.74  0.00 13.31                                                             
C 10.74  0.00 31.06                                                             
C 10.74  0.00 48.80                                                             
C 10.74  0.00 66.55                                                             
C 10.74  0.00 84.30                                                             
C  2.68  9.30 13.31                                                             
C  2.68  9.30 31.06                                                             
C  2.68  9.30 48.80                                                             
C  2.68  9.30 66.55                                                             
C  2.68  9.30 84.30                                                             
C  6.71  6.97 13.31                                                             
C  6.71  6.97 31.06                                                             
C  6.71  6.97 48.80                                                             
C  6.71  6.97 66.55                                                             
C  6.71  6.97 84.30                                                             
C 10.74  4.65 13.31                                                             
C 10.74  4.65 31.06                                                             
C 10.74  4.65 48.80                                                             
C 10.74  4.65 66.55                                                             
C 10.74  4.65 84.30                                                             
C 14.76  2.32 13.31                                                             
C 14.76  2.32 31.06                                                             
C 14.76  2.32 48.80                                                             
C 14.76  2.32 66.55                                                             
C 14.76  2.32 84.30                                                             
C 18.79  0.00 13.31                                                             
C 18.79  0.00 31.06                                                             
C 18.79  0.00 48.80                                                             
C 18.79  0.00 66.55                                                             
C 18.79  0.00 84.30                                                             
C  2.68 13.95 13.31                                                             
C  2.68 13.95 31.06                                                             
C  2.68 13.95 48.80                                                             
C  2.68 13.95 66.55                                                             
C  2.68 13.95 84.30                                                             
C  6.71 11.62 13.31                                                             
C  6.71 11.62 31.06                                                             
C  6.71 11.62 48.80                                                             
C  6.71 11.62 66.55                                                             
C  6.71 11.62 84.30                                                             
C 10.74  9.30 13.31                                                             
C 10.74  9.30 31.06                                                             
C 10.74  9.30 48.80                                                             
C 10.74  9.30 66.55                                                             
C 10.74  9.30 84.30                                                             
C 14.76  6.97 13.31                                                             
C 14.76  6.97 31.06                                                             
C 14.76  6.97 48.80                                                             
C 14.76  6.97 66.55                                                             
C 14.76  6.97 84.30                                                             
C 18.79  4.65 13.31                                                             
C 18.79  4.65 31.06                                                             
C 18.79  4.65 48.80                                                             
C 18.79  4.65 66.55                                                             
C 18.79  4.65 84.30                                                             
C 22.81  2.32 13.31                                                             
C 22.81  2.32 31.06                                                             
C 22.81  2.32 48.80                                                             
C 22.81  2.32 66.55                                                             
C 22.81  2.32 84.30                                                             
C 26.84  0.00 13.31                                                             
C 26.84  0.00 31.06                                                             
C 26.84  0.00 48.80                                                             
C 26.84  0.00 66.55                                                             
C 26.84  0.00 84.30                                                             
C  6.71 16.27 13.31                                                             
C  6.71 16.27 31.06                                                             
C  6.71 16.27 48.80                                                             
C  6.71 16.27 66.55                                                             
C  6.71 16.27 84.30                                                             
C 10.74 13.95 13.31                                                             
C 10.74 13.95 31.06                                                             
C 10.74 13.95 48.80                                                             
C 10.74 13.95 66.55                                                             
C 10.74 13.95 84.30                                                             
C 14.76 11.62 13.31                                                             
C 14.76 11.62 31.06                                                             
C 14.76 11.62 48.80                                                             
C 14.76 11.62 66.55                                                             
C 14.76 11.62 84.30                                                             
C 18.79  9.30 13.31                                                             
C 18.79  9.30 31.06                                                             
C 18.79  9.30 48.80                                                             
C 18.79  9.30 66.55                                                             
C 18.79  9.30 84.30                                                             
C 22.81  6.97 13.31                                                             
C 22.81  6.97 31.06                                                             
C 22.81  6.97 48.80                                                             
C 22.81  6.97 66.55                                                             
C 22.81  6.97 84.30                                                             
C 26.84  4.65 13.31                                                             
C 26.84  4.65 31.06                                                             
C 26.84  4.65 48.80                                                             
C 26.84  4.65 66.55                                                             
C 26.84  4.65 84.30                                                             
C 30.86  2.32 13.31                                                             
C 30.86  2.32 31.06                                                             
C 30.86  2.32 48.80                                                             
C 30.86  2.32 66.55                                                             
C 30.86  2.32 84.30                                                             
C 14.76 16.27 13.31                                                             
C 14.76 16.27 31.06                                                             
C 14.76 16.27 48.80                                                             
C 14.76 16.27 66.55                                                             
C 14.76 16.27 84.30                                                             
C 18.79 13.95 13.31                                                             
C 18.79 13.95 31.06                                                             
C 18.79 13.95 48.80                                                             
C 18.79 13.95 66.55                                                             
C 18.79 13.95 84.30                                                             
C 22.81 11.62 13.31                                                             
C 22.81 11.62 31.06                                                             
C 22.81 11.62 48.80                                                             
C 22.81 11.62 66.55                                                             
C 22.81 11.62 84.30                                                             
C 26.84  9.30 13.31                                                             
C 26.84  9.30 31.06                                                             
C 26.84  9.30 48.80                                                             
C 26.84  9.30 66.55                                                             
C 26.84  9.30 84.30                                                             
C 30.86  6.97 13.31                                                             
C 30.86  6.97 31.06                                                             
C 30.86  6.97 48.80                                                             
C 30.86  6.97 66.55                                                             
C 30.86  6.97 84.30                                                             
C 22.81 16.27 13.31                                                             
C 22.81 16.27 31.06                                                             
C 22.81 16.27 48.80                                                             
C 22.81 16.27 66.55                                                             
C 22.81 16.27 84.30                                                             
C 26.84 13.95 13.31                                                             
C 26.84 13.95 31.06                                                             
C 26.84 13.95 48.80                                                             
C 26.84 13.95 66.55                                                             
C 26.84 13.95 84.30                                                             
C 30.86 11.62 13.31                                                             
C 30.86 11.62 31.06                                                             
C 30.86 11.62 48.80                                                             
C 30.86 11.62 66.55                                                             
C 30.86 11.62 84.30                                                             
C 30.86 16.27 13.31                                                             
C 30.86 16.27 31.06                                                             
C 30.86 16.27 48.80                                                             
C 30.86 16.27 66.55                                                             
C 30.86 16.27 84.30                                                             
%ENDBLOCK POSITIONS_ABS                                                         

--------------------------------------------------------------------------------
-------------------------------- END INPUT FILE --------------------------------
--------------------------------------------------------------------------------


 
<<<<<<<<<<<<<<<<<<<<<<<<<<<<<<<<< Full system >>>>>>>>>>>>>>>>>>>>>>>>>>>>>>>>>>
<<<<<<<<<<<<<<<<<<<<<<<<<<< PAW Dataset information >>>>>>>>>>>>>>>>>>>>>>>>>>>
File: ~/pp/paw/c_pbe_abinit.paw; rc = 1.25 bohr; shape type =  3; rshape = 1.25 bohr;
  Atomic number:  6;  ionic charge:  4.000000
    Partial Wave 1: l = 0
    Partial Wave 2: l = 0
    Partial Wave 3: l = 1
    Partial Wave 4: l = 1
  Core charge supplied for Nonlinear Core Corrections
<<<<<<<<<<<<<<<<<<<<<<<<<<<<<<<<<<<<<<< >>>>>>>>>>>>>>>>>>>>>>>>>>>>>>>>>>>>>>>

-------------------------- Atom counting information ---------------------------
Symbol    Natoms    Nngwfs    Nprojs
  C        640      2560      5120
.......   ......    ......    ......
Totals:    640      2560      5120
--------------------------------------------------------------------------------

=============================== PSINC grid sizes ===============================
                      Simulation cell:   63 x  35 x 175
                              FFT-box:   63 x  35 x 117
                                  PPD:    7 x   5 x   1
Grid space d1=  0.511269841270a0 (KE cutoff=  29.06054Eh = 790.77748eV)
Grid space d2=  0.531142857143a0 (KE cutoff=  26.92659Eh = 732.70972eV)
Grid space d3=  0.507028571429a0 (KE cutoff=  29.54875Eh = 804.06244eV)
================================================================================
  
WARNING in cell_grid_distribute:
Average of less than one 23-slab per node, so workload cannot be
equally balanced between nodes.

********************* Fourier parallelisation information **********************
       Coarse grid (whole simulation cell) dimensions:     63    35   175
          Real-space ('12') slabs/node (min max mean):      4     5     4
         Recip-space ('23') slabs/node (min max mean):      0     1     0
********************************************************************************

********************* Fourier parallelisation information **********************
       Double grid (whole simulation cell) dimensions:    126    70   350
          Real-space ('12') slabs/node (min max mean):      8     9     8
         Recip-space ('23') slabs/node (min max mean):      1     2     1
********************************************************************************

Atom SCF Calculation for C  : Z (AE atom) =   6 : Z (PS atom) =   4
Config String: 2s2 2p2
Orbitals (num,occ):  2     2.00 2.00
Orbitals   (num,l):  2        0    1
Real-space Grid (nr,dr,rmax): 1293    0.0069659443    9.0000000000
Spherical Bessel Basis (nsws,lmax,cutoff):   37    2  161.4736382572
Confining potential (l,width,scale):  0    3.0000000000  100.0000000000
Confining potential (l,width,scale):  1    3.0000000000  100.0000000000
  1         -5.4795203654   -1.3252209296    4.5135257941   -1.6370402169
  2         -5.4480859746   -1.4027979239    4.4305951748   -1.6109819005
  3         -5.4553164790   -1.4212834043    4.4102618304   -1.6059039466
  4         -5.4627841133   -1.4247091338    4.4065122085   -1.6052907585
  5         -5.4662306655   -1.4266814823    4.4043715292   -1.6049352647
  6         -5.4679520247   -1.4277352742    4.4032348712   -1.6047493439
  7         -5.4688359568   -1.4282868030    4.4026432892   -1.6046541449
  8         -5.4692951245   -1.4285734530    4.4023374832   -1.6046056242
  9         -5.4695349887   -1.4287220785    4.4021797781   -1.6045809101
 10         -5.4696606791   -1.4287991022    4.4020984905   -1.6045683155
 11         -5.4697266650   -1.4288390363    4.4020565747   -1.6045618912
 12         -5.4697613504   -1.4288597596    4.4020349416   -1.6045586107
 13         -5.4697795998   -1.4288705262    4.4020237638   -1.6045569335
 14         -5.4697892089   -1.4288761271    4.4020179806   -1.6045560749
 15         -5.4697942720   -1.4288790448    4.4020149844   -1.6045556348
 16         -5.4697969415   -1.4288805668    4.4020134298   -1.6045554088
 17         -5.4697983498   -1.4288813619    4.4020126220   -1.6045552927
 18         -5.4697990933   -1.4288817779    4.4020122017   -1.6045552329
 19         -5.4697994860   -1.4288819957    4.4020119826   -1.6045552021
 20         -5.4697996936   -1.4288821100    4.4020118683   -1.6045551862
 21         -5.4697998034   -1.4288821701    4.4020118085   -1.6045551780
 22         -5.4697998614   -1.4288822017    4.4020117772   -1.6045551737
Atom SCF converged after  22 iterations to a total energy of     -5.46979986

Determining parallel strategy ...
... using space-filling curve
... NGWF load balancing: max     64;  min     64;  average     64
... Projector load balancing: max    128;  min    128;  average    128
... done
Calculating Ewald energy ...
              Ewald: real-space energy =    9654.819042
        Ewald: reciprocal-space energy =       4.452557
         Ewald: (sum_charge)**2 Energy =   10114.468781
         Ewald: (sum_charge**2) Energy =     799.618967
                          Ewald Energy =   -1254.816148
Basis initialisation ...... NGWF spheres initialised
... Projector spheres initialised
... NGWF tight boxes initialised
... Projector tight boxes initialised
... Tight-boxes gathered
... NGWF basis size (local,global):     692500  27889536
... PAW projector initialisation
... done

============================= Charge Augmentation ==============================
                           Aug box size:   11 x  11 x  11
================================================================================

========================== Sparse matrix information ===========================
                        Overlap matrix filling:  29.06%
                        Density kernel filling: 100.00%
              NGWF-Proj overlap matrix filling:   7.97%
                    Aug Overlap matrix filling:  35.62%
                    Hamiltonian matrix filling:  35.62%
                  NGWF diagonal matrix filling:   0.16%
                             KS matrix filling: 100.00% 
                           KSKS matrix filling: 100.00% 
================================================================================

Sparse matrix initialisation ... done
NGWF initialisation ...... done
============ Calculation of NGWF S^-1 using Hotelling algorithm ================ 
         Iteration  |  Frobenius norm and Maximum abs value    (of I-S*S_n^-1)   
               1       0.48752576E+02     0.97175541E+00
               2       0.47336587E+02     0.94555546E+00
               3       0.45296919E+02     0.89845966E+00
               4       0.42747413E+02     0.82098991E+00
               5       0.39742581E+02     0.71689359E+00
               6       0.36345306E+02     0.66443861E+00
               7       0.32929423E+02     0.61942304E+00
               8       0.29630879E+02     0.58017560E+00
               9       0.25892195E+02     0.53132435E+00
              10       0.21041424E+02     0.45192170E+00
              11       0.14824508E+02     0.33049195E+00
              12       0.80794558E+01     0.18241280E+00
              13       0.27922530E+01     0.60400822E-01
              14       0.40120121E+00     0.77952031E-02
              15       0.10038617E-01     0.16263331E-03
              16       0.86543866E-05     0.96372491E-07
              17       0.98633366E-11     0.67390538E-13
================================================================================
Calculating core density ...
================================= Core Density =================================
               Core den box size:   21 x  21 x  21
================================================================================
 ... done
Up spin density kernel initialisation ...... done

Writing density kernel to file "4.69556_GO_manual_4x64graphite.dkn" ... done

>>> Optimising kernel for current NGWFs:

--------------------------- Ensemble-DFT optimisation --------------------------
Running ScaLAPACK on   40 processor(s).

--------------------------------------------------------------------------------
  Iter                              Commutator    Free_energy(A=E-TS)     DeltaA
#    0                          0.000036539477   -3646.22437755988631  -3.65E+03

Step                       =       0.381966011250
Energy                     =   -3646.224353030379
Entropy (-TS)              =      -0.000024529378
Free energy (A=E-TS)       =   -3646.224377559886
Est. 0K Energy 0.5*(E+A)   =   -3646.224365295133
Residual Non-orthogonality =       0.000000000000
Residual N_electrons       =      -0.000000000128

Spin          Integrated_Ne            Fermi_level     Delta_Fermi_level
   1      2560.000000001820         0.070540160758              7.05E-02

                           Spin 1          
     Orb      H-eigenvalues     Occupancies
       1 |    -0.6504709533    1.0000000000 | 
                          ------
    1276 |     0.0336844006    0.9999911769 | 
    1277 |     0.0336855062    0.9999911738 | 
    1278 |     0.0337619671    0.9999909581 | 
    1279 |     0.0337632505    0.9999909545 | 
    1280 |     0.0338014446    0.9999908447 | 
                 - Gap at zero temperature -
    1281 |     0.1075294548    0.0000084588 | 
    1282 |     0.1075302940    0.0000084566 | 
    1283 |     0.1075325272    0.0000084506 | 
    1284 |     0.1075340021    0.0000084467 | 
    1285 |     0.1075354268    0.0000084429 | 
                          ------
    2560 |     0.9041595921    0.0000000000 | 

                       |  Abs_value |  Threshold | Converged
     Delta_Free_energy |   3.65E+03 |   1.00E-06 |        No
     Delta_Energy      |   3.65E+03 |   1.00E-04 |        No
     Delta_Entropy     |   2.45E-05 |   1.00E-04 |       Yes
     Commutator        |   3.65E-05 |   1.00E-05 |        No
     Delta_Fermi_level |   7.05E-02 |   1.00E-03 |        No

  Line search of the free energy minimum:
  Step_type        Step             Free_energy   Predicted_free_energy
.   Initial    0.000000    -3646.22437755988631
.    Trial1    0.381966    -3646.22588247667773
.    Trial2    0.618034    -3646.22626848843947
. Quadratic    0.719241    -3646.22630694012878    -3646.22630668575584

--------------------------------------------------------------------------------
  Iter                              Commutator    Free_energy(A=E-TS)     DeltaA
#    1                          0.000018159286   -3646.22630694012878  -1.93E-03

Step                       =       0.719240994771
Energy                     =   -3646.226281602781
Entropy (-TS)              =      -0.000025337432
Free energy (A=E-TS)       =   -3646.226306940129
Est. 0K Energy 0.5*(E+A)   =   -3646.226294271455
Residual Non-orthogonality =       0.000000000000
Residual N_electrons       =       0.000000000083

Spin          Integrated_Ne            Fermi_level     Delta_Fermi_level
   1      2559.999999998686         0.063226540834             -7.31E-03

                           Spin 1          
     Orb      H-eigenvalues     Occupancies
       1 |    -0.6604871973    1.0000000000 | 
                          ------
    1276 |     0.0263946116    0.9999911103 | 
    1277 |     0.0263958954    0.9999911067 | 
    1278 |     0.0264272480    0.9999910182 | 
    1279 |     0.0264289660    0.9999910133 | 
    1280 |     0.0264464180    0.9999909636 | 
                 - Gap at zero temperature -
    1281 |     0.1000232934    0.0000089890 | 
    1282 |     0.1000238067    0.0000089876 | 
    1283 |     0.1000264925    0.0000089800 | 
    1284 |     0.1000267554    0.0000089792 | 
    1285 |     0.1000285854    0.0000089740 | 
                          ------
    2560 |     0.8934249882    0.0000000000 | 

                       |  Abs_value |  Threshold | Converged
     Delta_Free_energy |   1.93E-03 |   1.00E-06 |        No
     Delta_Energy      |   1.93E-03 |   1.00E-04 |        No
     Delta_Entropy     |   8.08E-07 |   1.00E-04 |       Yes
     Commutator        |   1.82E-05 |   1.00E-05 |        No
     Delta_Fermi_level |   7.31E-03 |   1.00E-03 |        No

  Line search of the free energy minimum:
  Step_type        Step             Free_energy   Predicted_free_energy
.   Initial    0.000000    -3646.22630694012878
.    Trial1    0.719241    -3646.22569577302511
.    Trial2    0.274726    -3646.22664637288563
. Quadratic    0.269052    -3646.22664652311187    -3646.22664652391768

--------------------------------------------------------------------------------
  Iter                              Commutator    Free_energy(A=E-TS)     DeltaA
#    2                          0.000007959289   -3646.22664652311187  -3.40E-04

Step                       =       0.269051516604
Energy                     =   -3646.226621108444
Entropy (-TS)              =      -0.000025414646
Free energy (A=E-TS)       =   -3646.226646523112
Est. 0K Energy 0.5*(E+A)   =   -3646.226633815778
Residual Non-orthogonality =       0.000000000000
Residual N_electrons       =      -0.000000000022

Spin          Integrated_Ne            Fermi_level     Delta_Fermi_level
   1      2560.000000000347         0.062469352124             -7.57E-04

                           Spin 1          
     Orb      H-eigenvalues     Occupancies
       1 |    -0.6615333818    1.0000000000 | 
                          ------
    1276 |     0.0256807517    0.9999909878 | 
    1277 |     0.0256819469    0.9999909844 | 
    1278 |     0.0257095657    0.9999909054 | 
    1279 |     0.0257112998    0.9999909004 | 
    1280 |     0.0257268313    0.9999908557 | 
                 - Gap at zero temperature -
    1281 |     0.0992886437    0.0000089253 | 
    1282 |     0.0992890930    0.0000089240 | 
    1283 |     0.0992917353    0.0000089166 | 
    1284 |     0.0992919272    0.0000089160 | 
    1285 |     0.0992936298    0.0000089112 | 
                          ------
    2560 |     0.8923031521    0.0000000000 | 

                       |  Abs_value |  Threshold | Converged
     Delta_Free_energy |   3.40E-04 |   1.00E-06 |        No
     Delta_Energy      |   3.40E-04 |   1.00E-04 |        No
     Delta_Entropy     |   7.72E-08 |   1.00E-04 |       Yes
     Commutator        |   7.96E-06 |   1.00E-05 |       Yes
     Delta_Fermi_level |   7.57E-04 |   1.00E-03 |       Yes

  Line search of the free energy minimum:
  Step_type        Step             Free_energy   Predicted_free_energy
.   Initial    0.000000    -3646.22664652311187
.    Trial1    0.269052    -3646.22670453651926
.    Trial2    0.548249    -3646.22671249290579
. Quadratic    0.450397    -3646.22671576063385    -3646.22671576099128

--------------------------------------------------------------------------------
  Iter                              Commutator    Free_energy(A=E-TS)     DeltaA
#    3                          0.000004940146   -3646.22671576063385  -6.92E-05

Step                       =       0.450396880612
Energy                     =   -3646.226690257234
Entropy (-TS)              =      -0.000025503457
Free energy (A=E-TS)       =   -3646.226715760634
Est. 0K Energy 0.5*(E+A)   =   -3646.226703008934
Residual Non-orthogonality =       0.000000000000
Residual N_electrons       =       0.000000000057

Spin          Integrated_Ne            Fermi_level     Delta_Fermi_level
   1      2559.999999999079         0.061540624714             -9.29E-04

                           Spin 1          
     Orb      H-eigenvalues     Occupancies
       1 |    -0.6628034959    1.0000000000 | 
                          ------
    1276 |     0.0247766057    0.9999909176 | 
    1277 |     0.0247777223    0.9999909144 | 
    1278 |     0.0248009273    0.9999908475 | 
    1279 |     0.0248026867    0.9999908425 | 
    1280 |     0.0248159096    0.9999908041 | 
                 - Gap at zero temperature -
    1281 |     0.0983611245    0.0000089219 | 
    1282 |     0.0983615058    0.0000089208 | 
    1283 |     0.0983640943    0.0000089135 | 
    1284 |     0.0983642230    0.0000089132 | 
    1285 |     0.0983658056    0.0000089087 | 
                          ------
    2560 |     0.8909523597    0.0000000000 | 

                       |  Abs_value |  Threshold | Converged
     Delta_Free_energy |   6.92E-05 |   1.00E-06 |        No
     Delta_Energy      |   6.91E-05 |   1.00E-04 |       Yes
     Delta_Entropy     |   8.88E-08 |   1.00E-04 |       Yes
     Commutator        |   4.94E-06 |   1.00E-05 |       Yes
     Delta_Fermi_level |   9.29E-04 |   1.00E-03 |       Yes

  Line search of the free energy minimum:
  Step_type        Step             Free_energy   Predicted_free_energy
.   Initial    0.000000    -3646.22671576063385
.    Trial1    0.450397    -3646.22673384197469
.    Trial2    0.660327    -3646.22670503436120
. Quadratic    0.299926    -3646.22673992335058    -3646.22673992367709

--------------------------------------------------------------------------------
  Iter                              Commutator    Free_energy(A=E-TS)     DeltaA
#    4                          0.000002944618   -3646.22673992335058  -2.42E-05

Step                       =       0.299926365031
Energy                     =   -3646.226714389018
Entropy (-TS)              =      -0.000025534278
[...]
 C   160 -- C   385       -0.10      5.37000
 C   159 -- C   384       -0.10      5.37000
 C   158 -- C   383       -0.10      5.37000
 C   157 -- C   382       -0.10      5.37000
 C   156 -- C   381       -0.10      5.37000
 C   155 -- C   355       -0.10      5.37000
 C   154 -- C   354       -0.10      5.37000
 C   153 -- C   353       -0.10      5.37000
 C   152 -- C   352       -0.10      5.37000
 C   151 -- C   351       -0.10      5.37000
 C   140 -- C   335       -0.10      5.37000
 C   139 -- C   334       -0.10      5.37000
 C   138 -- C   333       -0.10      5.37000
 C   137 -- C   332       -0.10      5.37000
 C   136 -- C   331       -0.10      5.37000
 C   115 -- C   325       -0.10      5.37000
 C   114 -- C   324       -0.10      5.37000
 C   113 -- C   323       -0.10      5.37000
 C   112 -- C   322       -0.10      5.37000
 C   111 -- C   321       -0.10      5.37000
 C   219 -- C   569       -0.10      5.37202
 C   218 -- C   568       -0.10      5.37202
 C   217 -- C   567       -0.10      5.37202
 C   216 -- C   566       -0.10      5.37202
 C   250 -- C   540       -0.10      5.37202
 C   249 -- C   539       -0.10      5.37202
 C   248 -- C   538       -0.10      5.37202
 C   247 -- C   537       -0.10      5.37202
 C   246 -- C   536       -0.10      5.37202
 C   220 -- C   570       -0.10      5.37202
 C   285 -- C   580       -0.10      5.37202
 C   284 -- C   579       -0.10      5.37202
 C   283 -- C   578       -0.10      5.37202
 C   282 -- C   577       -0.10      5.37202
 C   281 -- C   576       -0.10      5.37202
 C   260 -- C   605       -0.10      5.37202
 C   259 -- C   604       -0.10      5.37202
 C   258 -- C   603       -0.10      5.37202
 C   257 -- C   602       -0.10      5.37202
 C   256 -- C   601       -0.10      5.37202
 C   220 -- C   515       -0.10      5.37202
 C   219 -- C   514       -0.10      5.37202
 C   218 -- C   513       -0.10      5.37202
 C   217 -- C   512       -0.10      5.37202
 C   216 -- C   511       -0.10      5.37202
 C   195 -- C   540       -0.10      5.37202
 C   195 -- C   500       -0.10      5.37202
 C   194 -- C   539       -0.10      5.37202
 C   194 -- C   499       -0.10      5.37202
 C   193 -- C   538       -0.10      5.37202
 C   193 -- C   498       -0.10      5.37202
 C   192 -- C   537       -0.10      5.37202
 C   192 -- C   497       -0.10      5.37202
 C   191 -- C   536       -0.10      5.37202
 C   191 -- C   496       -0.10      5.37202
 C   180 -- C   515       -0.10      5.37202
 C   179 -- C   514       -0.10      5.37202
 C   178 -- C   513       -0.10      5.37202
 C   177 -- C   512       -0.10      5.37202
 C   176 -- C   511       -0.10      5.37202
 C    11 -- C   331       -0.10      5.37202
 C   205 -- C   550       -0.10      5.37202
 C   204 -- C   549       -0.10      5.37202
 C   203 -- C   548       -0.10      5.37202
 C   202 -- C   547       -0.10      5.37202
 C   201 -- C   546       -0.10      5.37202
 C    95 -- C   425       -0.10      5.37202
 C    95 -- C   365       -0.10      5.37202
 C    94 -- C   424       -0.10      5.37202
 C    94 -- C   364       -0.10      5.37202
 C    93 -- C   423       -0.10      5.37202
 C    93 -- C   363       -0.10      5.37202
 C    92 -- C   422       -0.10      5.37202
 C    92 -- C   362       -0.10      5.37202
 C    91 -- C   421       -0.10      5.37202
 C    91 -- C   361       -0.10      5.37202
 C    40 -- C   365       -0.10      5.37202
 C    39 -- C   364       -0.10      5.37202
 C    38 -- C   363       -0.10      5.37202
 C    37 -- C   362       -0.10      5.37202
 C    36 -- C   361       -0.10      5.37202
 C    15 -- C   335       -0.10      5.37202
 C    65 -- C   395       -0.10      5.37202
 C    65 -- C   345       -0.10      5.37202
 C    64 -- C   394       -0.10      5.37202
 C    64 -- C   344       -0.10      5.37202
 C    63 -- C   393       -0.10      5.37202
 C    30 -- C   355       -0.10      5.37202
 C    63 -- C   343       -0.10      5.37202
 C    62 -- C   392       -0.10      5.37202
 C    30 -- C   325       -0.10      5.37202
 C    14 -- C   334       -0.10      5.37202
 C    62 -- C   342       -0.10      5.37202
 C    61 -- C   391       -0.10      5.37202
 C    29 -- C   354       -0.10      5.37202
 C    61 -- C   341       -0.10      5.37202
 C    29 -- C   324       -0.10      5.37202
 C   260 -- C   550       -0.10      5.37202
 C   259 -- C   549       -0.10      5.37202
 C    28 -- C   353       -0.10      5.37202
 C   258 -- C   548       -0.10      5.37202
 C   257 -- C   547       -0.10      5.37202
 C   256 -- C   546       -0.10      5.37202
 C    28 -- C   323       -0.10      5.37202
 C    27 -- C   352       -0.10      5.37202
 C    13 -- C   333       -0.10      5.37202
 C    27 -- C   322       -0.10      5.37202
 C   120 -- C   395       -0.10      5.37202
 C    26 -- C   351       -0.10      5.37202
 C   119 -- C   394       -0.10      5.37202
 C   118 -- C   393       -0.10      5.37202
 C    55 -- C   335       -0.10      5.37202
 C   117 -- C   392       -0.10      5.37202
 C    26 -- C   321       -0.10      5.37202
 C   116 -- C   391       -0.10      5.37202
 C    54 -- C   334       -0.10      5.37202
 C    12 -- C   332       -0.10      5.37202
 C    53 -- C   333       -0.10      5.37202
 C   230 -- C   580       -0.10      5.37202
 C   230 -- C   525       -0.10      5.37202
 C   229 -- C   579       -0.10      5.37202
 C   229 -- C   524       -0.10      5.37202
 C   228 -- C   578       -0.10      5.37202
 C    52 -- C   332       -0.10      5.37202
 C   228 -- C   523       -0.10      5.37202
 C   227 -- C   577       -0.10      5.37202
 C   227 -- C   522       -0.10      5.37202
 C   226 -- C   576       -0.10      5.37202
 C   226 -- C   521       -0.10      5.37202
 C    51 -- C   331       -0.10      5.37202
 C    23 -- C   478       -0.10      5.37202
 C    49 -- C   469       -0.10      5.37202
 C    48 -- C   468       -0.10      5.37202
 C    47 -- C   467       -0.10      5.37202
 C    22 -- C   477       -0.10      5.37202
 C    46 -- C   466       -0.10      5.37202
 C    21 -- C   476       -0.10      5.37202
 C    85 -- C   355       -0.10      5.37202
 C    84 -- C   354       -0.10      5.37202
 C    83 -- C   353       -0.10      5.37202
 C    82 -- C   352       -0.10      5.37202
 C    81 -- C   351       -0.10      5.37202
 C    55 -- C   385       -0.10      5.37202
 C    54 -- C   384       -0.10      5.37202
 C    25 -- C   480       -0.10      5.37202
 C    53 -- C   383       -0.10      5.37202
 C    52 -- C   382       -0.10      5.37202
 C    51 -- C   381       -0.10      5.37202
 C    24 -- C   479       -0.10      5.37202
 C    50 -- C   470       -0.10      5.37202
 C    24 -- C   449       -0.10      5.37202
 C     6 -- C   416       -0.10      5.37202
 C    23 -- C   448       -0.10      5.37202
 C    22 -- C   447       -0.10      5.37202
 C    10 -- C   470       -0.10      5.37202
 C     5 -- C   450       -0.10      5.37202
 C    21 -- C   446       -0.10      5.37202
 C    10 -- C   420       -0.10      5.37202
 C     9 -- C   469       -0.10      5.37202
 C     9 -- C   419       -0.10      5.37202
 C     8 -- C   468       -0.10      5.37202
 C     4 -- C   449       -0.10      5.37202
 C   150 -- C   440       -0.10      5.37202
 C   149 -- C   439       -0.10      5.37202
 C   148 -- C   438       -0.10      5.37202
 C   147 -- C   437       -0.10      5.37202
 C     8 -- C   418       -0.10      5.37202
 C   146 -- C   436       -0.10      5.37202
 C     2 -- C   447       -0.10      5.37202
 C   135 -- C   460       -0.10      5.37202
 C     7 -- C   467       -0.10      5.37202
 C   134 -- C   459       -0.10      5.37202
 C   133 -- C   458       -0.10      5.37202
 C   132 -- C   457       -0.10      5.37202
 C   131 -- C   456       -0.10      5.37202
 C     7 -- C   417       -0.10      5.37202
 C     1 -- C   446       -0.10      5.37202
 C     6 -- C   466       -0.10      5.37202
 C    25 -- C   450       -0.10      5.37202
 C     3 -- C   448       -0.10      5.37202
 C   106 -- C   436       -0.10      5.37202
 C   106 -- C   376       -0.10      5.37202
 C    80 -- C   410       -0.10      5.37202
 C    79 -- C   409       -0.10      5.37202
 C    78 -- C   408       -0.10      5.37202
 C    77 -- C   407       -0.10      5.37202
 C    76 -- C   406       -0.10      5.37202
 C   135 -- C   410       -0.10      5.37202
 C   134 -- C   409       -0.10      5.37202
 C   133 -- C   408       -0.10      5.37202
 C   132 -- C   407       -0.10      5.37202
 C   131 -- C   406       -0.10      5.37202
 C   110 -- C   440       -0.10      5.37202
 C   110 -- C   380       -0.10      5.37202
 C   109 -- C   439       -0.10      5.37202
 C   109 -- C   379       -0.10      5.37202
 C   108 -- C   438       -0.10      5.37202
 C   108 -- C   378       -0.10      5.37202
 C   107 -- C   437       -0.10      5.37202
 C   107 -- C   377       -0.10      5.37202
 C   215 -- C   635       -0.10      5.38000
 C   214 -- C   634       -0.10      5.38000
 C   213 -- C   633       -0.10      5.38000
 C   212 -- C   632       -0.10      5.38000
 C   211 -- C   631       -0.10      5.38000
 C   190 -- C   620       -0.10      5.38000
 C   189 -- C   619       -0.10      5.38000
 C   188 -- C   618       -0.10      5.38000
 C   187 -- C   617       -0.10      5.38000
 C   186 -- C   616       -0.10      5.38000
 C   175 -- C   595       -0.10      5.38000
 C   174 -- C   594       -0.10      5.38000
 C   173 -- C   593       -0.10      5.38000
 C   172 -- C   592       -0.10      5.38000
 C   171 -- C   591       -0.10      5.38000
 C   245 -- C   640       -0.10      5.38000
 C   244 -- C   639       -0.10      5.38000
 C   243 -- C   638       -0.10      5.38000
 C   242 -- C   637       -0.10      5.38000
 C   241 -- C   636       -0.10      5.38000
==================================================


=================== Orbital energy and occupancy information ===================

      Total number of orbitals:    2560
        Occupancy sum (kernel):    1280.000000000
   Occupancy sum (eigenvalues):    1280.000000000
                 HOMO-LUMO gap:       0.000001844 Eh
                 Mid-gap level:       0.173955451 Eh

                        Orbital | Energy (Eh) | Occupancy
                            1    -0.579299546   1.0000000
                        .......   ...........   .........
                         1272     0.101318252   0.9999901
                         1273     0.101782756   0.9999885
                         1274     0.101786721   0.9999885
                         1275     0.101920484   0.9999880
                         1276     0.101922966   0.9999880
                         1277     0.102154470   0.9999871
                         1278     0.102390153   0.9999861
                         1279     0.102392624   0.9999861
                         1280     0.102624524   0.9999850
                         1281     0.173954529   0.0000109
                        ....... -- gap at 0K -- .........
                         1282     0.173956373   0.0000109
                         1283     0.173987593   0.0000108
                         1284     0.173989463   0.0000108
                         1285     0.174009178   0.0000107
                         1286     0.174203042   0.0000101
                         1287     0.174204904   0.0000101
                         1288     0.174235332   0.0000100
                         1289     0.174237166   0.0000100
                         1290     0.174256427   0.0000099
                         1291     0.174409921   0.0000095
                        .......   ...........   .........
                         2560     1.033948491   0.0000000

================================================================================

===================== Writing canonical molecular orbitals =====================
| Orbital  Energy (eV)  Norm     |
| HOMO      4.73354360  1.000000 | Writing "4.69556_GO_manual_4x64graphite_HOMO.cube" ... done
Writing "4.69556_GO_manual_4x64graphite_HOMO.dx" ... done
| LUMO      4.73359378  1.000000 | Writing "4.69556_GO_manual_4x64graphite_LUMO.cube" ... done
Writing "4.69556_GO_manual_4x64graphite_LUMO.dx" ... done
================================================================================
 
===================== Density of States (DOS) calculation ======================
Writing "4.69556_GO_manual_4x64graphite_DOS.txt" ...  done
================================================================================
 
Writing bands to file "4.69556_GO_manual_4x64graphite.val_bands" ... done
 
================ Projected Density of States (pDOS) calculation ================
 
Constructing AM resolved functions  ...... done
Writing NGWF plot files in formats: CUBE DX ...  done
 
Performing overlap integrals ...  done
 
Computing pDOS weights ...  done
 
All bands spilling parameter =   2.70 %
Occupancy-weighted spilling parameter =   1.00 %
 
 => Outputting data for OptaDOS <=
 
Writing pDOS weights to file "4.69556_GO_manual_4x64graphite.val_pdos_bin" ... done
 
Writing band gradients to file "4.69556_GO_manual_4x64graphite.val_dome_bin" ... done
 
Writing Castep output cell file to "4.69556_GO_manual_4x64graphite-out.cell" ... done
 
 => Computing Gaussian smeared pDOS <= 
Writing "4.69556_GO_manual_4x64graphite_PDOS.txt" ...  done
 
 => Computing Occupancy-weighted Gaussian smeared pDOS <= 
Writing "4.69556_GO_manual_4x64graphite_occ_PDOS.txt" ...  done
  => Band centres: 
 S band centre of group 1:  -15.628752 eV
 P band centre of group 1:   -8.502660 eV
  Band centres done. <=
  => Integrated number of electrons in each AM band: 
 S num electrons of group 1:  575.375757
 P num electrons of group 1: 1959.046277
  Integrated number of electrons done. <=
================================================================================

------------------------------ TIMING INFORMATION ------------------------------
AVERAGE TIME:    2475.010s on     40 node(s)                                    
TOTAL TIME:      2475.011s on     40 node(s)                                    
================= AVERAGE TIMINGS FROM ALL NODES (CUMULATIVE) ==================
|| TAG                                    #calls    cpu time   %total  Gflops ||
|| work_imbalance                       :     1        0.00s   0.000%  ------ ||
|| paw_tcore_hartree_on_grid            :     1        0.01s   0.000%  ------ ||
|| paw_tcore_density                    :     1        0.01s   0.000%  ------ ||
|| paw_sphere_density_on_grid           :     1        0.01s   0.001%  ------ ||
|| sparse_set_to_garbage                :   135        0.02s   0.001%  ------ ||
|| paw_dij_hartree                      :   269        0.03s   0.001%  ------ ||
|| basis_extract_function_from_box      :  1536        0.06s   0.003%  ------ ||
|| pseudo_make_structure_factor         :     1        0.07s   0.003%  ------ ||
|| paw_species_calc_proj_prec_mat       :     1        0.12s   0.005%  ------ ||
|| density_init_guess_real              :     1        0.17s   0.007%  ------ ||
|| paw_dataset_init                     :     1        0.30s   0.012%  ------ ||
|| ngwfs_initialise_from_radial         :     2        0.67s   0.027%  ------ ||
|| restart_kernel_write                 :    13        0.73s   0.030%  ------ ||
|| sparse_init                          :     1        0.86s   0.035%  ------ ||
|| dense_normal_eigensolve              :     1        1.10s   0.044%  ------ ||
|| hartree_on_grid                      :   203        1.55s   0.063%  ------ ||
|| projectors_init_fftbox_recip         :   121        2.32s   0.094%  ------ ||
|| fourier_apply_box_pair               :  2272        3.77s   0.152% 559.196 ||
|| basis_copy_function_to_box           : 19328        4.16s   0.168%  ------ ||
|| augmentation_screen_dij              :   208        4.47s   0.181%  ------ ||
|| ewald_calculate_energy               :     1        4.91s   0.198%  ------ ||
|| sparse_embed_hotelling_invert_embed  :    23        6.57s   0.266%  ------ ||
|| sw_init                              :     1        6.73s   0.272%  ------ ||
|| ngwf_gradient_coeffs                 :    12        7.99s   0.323%  ------ ||
|| sparse_trace                         :  2432        9.40s   0.380%  ------ ||
|| fourier_apply_cell_backward          :  6264       15.24s   0.616%  69.130 ||
|| cell_grid_deposit_box_real           : 26160       15.98s   0.646%  ------ ||
|| fourier_apply_cell_forward           :  5859       16.21s   0.655%  60.764 ||
|| cell_grid_extract_box_real           :  8140       16.81s   0.679%  ------ ||
|| paw_dij_xc                           :   269       18.00s   0.727%  ------ ||
|| aug_nonlocal_mat                     :   257       23.41s   0.946%  ------ ||
|| density_fftbox_deposit_to_cell       : 12992       32.06s   1.295%  ------ ||
|| augmentation_density_on_grid         :   203       34.84s   1.408%  ------ ||
|| function_ops_brappd_ketppd           :    48       36.32s   1.468%  ------ ||
|| projectors_func_ovlp_box             :    24       36.91s   1.491%  ------ ||
|| hamiltonian_energy_components        :     3       37.45s   1.513%  ------ ||
|| eigenstates_pdos                     :     1       51.98s   2.100%  ------ ||
|| integrals_kinetic                    :    23       54.67s   2.209%  ------ ||
|| eigenstates_calculate                :     1       56.73s   2.292%  ------ ||
|| nlxc_vdw_energy                      :   404       66.53s   2.688%  ------ ||
|| xc_energy_potential                  :   202       69.49s   2.808%  ------ ||
|| dense_eigensolve                     :   176       85.80s   3.467%  ------ ||
|| sparse_product                       :  2483       94.76s   3.829%  ------ ||
|| potential_apply_to_ngwf_batch        :   252       98.12s   3.964%  ------ ||
|| properties_calculate                 :     1      107.19s   4.331%  ------ ||
|| basis_dot_function_with_box          : 4.175M     111.73s   4.514%  ------ ||
|| restart_ngwfs_tightbox_output        :    11      129.45s   5.230%  ------ ||
|| projectors_gradient_batch            :    48      145.27s   5.870%  ------ ||
|| integrals_locpot_mat_els_batch       :   252      148.14s   5.986%  ------ ||
|| fourier_apply_box                    : 61104      189.23s   7.646% 977.971 ||
|| edft_diag_ngwf_ham                   :   175      193.40s   7.814%  ------ ||
|| projectors_grad_precond_batch        :    48      199.74s   8.070%  ------ ||
|| integrals_locpot_dbl_grid            :    63      247.15s   9.986%  ------ ||
|| density_fftbox_interpolate_multiply  : 12992      252.01s  10.182%  ------ ||
|| basis_add_function_to_box            : 11.95M     308.32s  12.457%  ------ ||
|| density_batch_interp_deposit         :   812      314.34s  12.701%  ------ ||
|| edft_apply_smearing_operator         :   175      376.55s  15.214%  ------ ||
|| ngwf_gradient_build_batch            :    48      381.42s  15.411%  ------ ||
|| density_batch_row_sums               :   812      422.40s  17.067%  ------ ||
|| ngwf_gradient_batch                  :    48      508.45s  20.543%  ------ ||
|| ngwf_gradient_lnv                    :    12      524.85s  21.206%  ------ ||
|| density_on_dbl_grid                  :   203      748.51s  30.243%  ------ ||
|| hamiltonian_lhxc_calculate           :   198      834.61s  33.722%  ------ ||
|| edft_calculate                       :    12     1449.50s  58.566%  ------ ||
|| ngwf_cg_optimise                     :     1     2342.77s  94.657%  ------ ||
|| total_time                           :     1     2475.01s 100.000%  ------ ||
================================================================================
Overhead of generating timer report: 
- 0 ms averaging over threads,
- 6 ms ensuring consistency across MPI ranks,
- 0 ms printing in order.

Job completed: 05-03-2020 18:01 (-0000)

