 +---------------------------------------------------------------+
 |                                                               |
 |        ####### #     # ####### ####### ####### ######         |
 |        #     # ##    # #          #    #       #     #        |
 |        #     # # #   # #          #    #       #     #        |
 |        #     # #  #  # #####      #    #####   ######         |
 |        #     # #   # # #          #    #       #              |
 |        #     # #    ## #          #    #       #              |
 |        ####### #     # #######    #    ####### #              |
 |                                                               |
 |        Linear-Scaling Ab Initio Total Energy Program          |
 |                                                               |
 |          Release for academic collaborators of ODG            |
 |                                             Version 5.3.2.12  |
 |                                                               |
 +---------------------------------------------------------------+
 |                                                               |
 |  Authors:                                                     |
 |  Jacek Dziedzic, Peter D. Haynes, Nicholas D. M. Hine,        |
 |  Arash. A. Mostofi, Mike C. Payne and Chris-Kriton Skylaris   |
 |                                                               |
 |  Contributors:                                                |
 |  J. Aarons, L. Andrinopoulos, P. W. Avraam, R. A. Bell,       |
 |  A. Bhandari, G. A. Bramley, R. J. Charlton, S. J. Clark,     |
 |  R. J. Clements, G. C. Constantinescu, F. Corsetti,           |
 |  N. Corsini, O. Dieguez, S. M. M. Dubois, K. K. B. Duff,      |
 |  J. M. Escartin, A. Greco, H. Helal, Q. O. Hill, L. P. Lee,   |
 |  J.-H. Li, E. B. Linscott, G. Moynihan, D. D. O`Regan,        |
 |  O. K. Okan, M. J. S. Phipps, C. J. Pickard,                  |
 |  J. C. A. Prentice, M. I. J. Probert, L. E. Ratcliff,         |
 |  M. Robinson, A. Ruiz Serrano, J. S. Spencer, E. W. Tait,     |
 |  G. Teobaldi, D. Turban, V. Vitale, K. A. Wilkinson,          |
 |  C. Weber, J. C. Womack, N. Yeung and T. J. Zuehlsdorff       |
 |                                                               |
 |                                   Copyright (c) 2004-2020     |
 |                                                               |
 |  Please cite:                                                 |
 |  "Introducing ONETEP: Linear-scaling density functional       |
 |   simulations on parallel computers".                         |
 |   C.-K. Skylaris, P. D. Haynes, A. A. Mostofi, M. C. Payne.   |
 |   J. Chem. Phys. 122 084119 (2005).                           |
 |                                                               |
 |          in all publications arising from your use of ONETEP. |
 |                                                               |
 +---------------------------------------------------------------+
 |                                                               |
 |   ONETEP is based on developments described in the following  |
 |   publications:                                               |
 |                                                               |
 |  "Nonorthogonal generalized Wannier function pseudopotential  |
 |   plane-wave method".                                         |
 |   C.-K. Skylaris, A. A. Mostofi, P. D. Haynes, O. Dieguez,    |
 |   M. C. Payne.                                                |
 |   Phys. Rev. B 66 035119 (2002).                              |
 |                                                               |
 |  "Preconditioned iterative minimization for linear-scaling    |
 |   electronic structure calculations".                         |
 |   A. A. Mostofi, P. D. Haynes, C.-K. Skylaris, M. C. Payne.   |
 |   J. Chem. Phys. 119(17), pp.8842-8848 (2003).                |
 |                                                               |
 |  "Total-energy calculations on a real space grid with         |
 |   localized functions and a plane-wave basis".                |
 |   A. A. Mostofi, C.-K. Skylaris, P. D. Haynes, M. C. Payne.   |
 |   Comput. Phys. Commun. 147, pp.788-802 (2002).               |
 |                                                               |
 |  "Accurate kinetic energy evaluation in electronic structure  |
 |   calculations with localized functions on real space grids"  |
 |   C.-K. Skylaris, A. A. Mostofi, P. D. Haynes, C. J. Pickard, |
 |   M. C. Payne.                                                |
 |   Comput. Phys. Commun. 140, pp.315-322 (2001).               |
 |                                                               |
 |  "Accurate ionic forces and geometry optimization in linear-  |
 |   scaling density-functional theory with local orbitals"      |
 |   N. D. M. Hine, M. Robinson, P. D. Haynes, C.-K. Skylaris,   |
 |   M. C. Payne, and A. A. Mostofi.                             |
 |   Phys. Rev. B 83 195102 (2011).                              |
 |                                                               |
 +---------------------------------------------------------------+

Job started: 09-03-2020 12:53 (-0000)
 
Reading parameters from file "5.500496_GO_manual_4x64graphite.dat" ...

WARNING: "cutoff_energy" not specified, but "psinc_spacing" specified.
         Using the latter to set the KE cutoff energy to  732.32021eV,
         thus *overriding* the default.

... done

If your calculation crashes here, before "Checking processes and threads..."
is displayed, then your stack size is insufficient.
If so, use "ulimit -s unlimited" at runtime.
You can disable this check with "check_stack_size F".

Checking processes and threads...
   Determining the default number of threads...
      No default threads set at compilation time: defaulting to 1.
      OpenMP library call suggests 4 threads.
      Hybrid MPI-OpenMP compilation detected.
      Number of MPI processes > 1.
      OMP_NUM_THREADS environment variable present and
      its value matches the one obtained from the OpenMP library call.
      Using this value as default.
      Default threads: 4
      Default applies to threads_max and threads_num_fftboxes.
      Settings in the input file override this default.
   ... done

   Running with 40 MPI processes.
   There are 10 MPI processes running on the same node as the root process.
   Each MPI process is using: 
               1 threads for simulation cell FFTs.
               1 threads for parallel FFT box operations.
               4 threads for loops over batched FFT box operations.
               4 threads in other parallel regions.
... done

Basic input checks...
Resetting ngwf_cg_rotate to TRUE for EDFT calculations
... done

Reading geometry and species blocks from file "5.500496_GO_manual_4x64graphite.dat" ...
    
  PSINC grid spacing along a1 set to   0.511215680000a0 from input file.
  PSINC grid spacing along a2 set to   0.531284090000a0 from input file.
  PSINC grid spacing along a3 set to   0.507046450000a0 from input file.
  Number of PPD points along a3 set to 1.  This is 
  the default value, it may have been provided also in the input file.
... done
 Writing xyz coordinates to file "5.500496_GO_manual_4x64graphite.xyz" ... done


--------------------------------------------------------------------------------
---------------------------------- INPUT FILE ----------------------------------
--------------------------------------------------------------------------------

task : singlepoint                                                              
do_properties : true                                                            
dx_format T                                                                     
edft T                                                                          
output_detail VERBOSE                                                           
write_xyz T                                                                     
xc_functional OPTPBE                                                            
PSINC_SPACING 0.51121568 0.53128409 0.50704645                                  
paw T                                                                           
pdos_max_l = 2                                                                  
dos_smear  0.1 eV                                                               
popn_calculate T                                                                
PDOS_PSEUDOATOMIC T                                                             
PDOS_REDUCE_SWS F                                                               
PDOS_CONSTRUCT_BASIS F                                                          
PDOS_LOWDIN T                                                                   
PDOS_ORTH_ATOM_BLOCKS F                                                         
PDOS_LCAO_OPTIMIZE F                                                            
pdos_optados_output T                                                           
homo_plot 0                                                                     
lumo_plot 0                                                                     
homo_dens_plot -1                                                               
lumo_dens_plot -1                                                               
%BLOCK SPECIES                                                                  
C C 6 4 9.0                                                                     
%ENDBLOCK SPECIES                                                               
%BLOCK SPECIES_POT                                                              
C "~/pp/paw/c_pbe_abinit.paw"                                                   
%ENDBLOCK SPECIES_POT                                                           
%BLOCK SPECIES_ATOMIC_SET                                                       
C "SOLVE conf=2s2 2p2"                                                          
%ENDBLOCK SPECIES_ATOMIC_SET                                                    
%BLOCK LATTICE_CART                                                             
32.21  0.00  0.00                                                               
0.00 18.59  0.00                                                                
0.00  0.00 103.94                                                               
%ENDBLOCK LATTICE_CART                                                          
%BLOCK POSITIONS_ABS                                                            
C  0.00  0.00  5.20                                                             
C  0.00  0.00 25.99                                                             
C  0.00  0.00 46.78                                                             
C  0.00  0.00 67.56                                                             
C  0.00  0.00 88.35                                                             
C  0.00  4.65  5.20                                                             
C  0.00  4.65 25.99                                                             
C  0.00  4.65 46.78                                                             
C  0.00  4.65 67.56                                                             
C  0.00  4.65 88.35                                                             
C  4.03  2.32  5.20                                                             
C  4.03  2.32 25.99                                                             
C  4.03  2.32 46.78                                                             
C  4.03  2.32 67.56                                                             
C  4.03  2.32 88.35                                                             
C  8.05  0.00  5.20                                                             
C  8.05  0.00 25.99                                                             
C  8.05  0.00 46.78                                                             
C  8.05  0.00 67.56                                                             
C  8.05  0.00 88.35                                                             
C  0.00  9.30  5.20                                                             
C  0.00  9.30 25.99                                                             
C  0.00  9.30 46.78                                                             
C  0.00  9.30 67.56                                                             
C  0.00  9.30 88.35                                                             
C  4.03  6.97  5.20                                                             
C  4.03  6.97 25.99                                                             
C  4.03  6.97 46.78                                                             
C  4.03  6.97 67.56                                                             
C  4.03  6.97 88.35                                                             
C  8.05  4.65  5.20                                                             
C  8.05  4.65 25.99                                                             
C  8.05  4.65 46.78                                                             
C  8.05  4.65 67.56                                                             
C  8.05  4.65 88.35                                                             
C 12.08  2.32  5.20                                                             
C 12.08  2.32 25.99                                                             
C 12.08  2.32 46.78                                                             
C 12.08  2.32 67.56                                                             
C 12.08  2.32 88.35                                                             
C 16.10  0.00  5.20                                                             
C 16.10  0.00 25.99                                                             
C 16.10  0.00 46.78                                                             
C 16.10  0.00 67.56                                                             
C 16.10  0.00 88.35                                                             
C  0.00 13.95  5.20                                                             
C  0.00 13.95 25.99                                                             
C  0.00 13.95 46.78                                                             
C  0.00 13.95 67.56                                                             
C  0.00 13.95 88.35                                                             
C  4.03 11.62  5.20                                                             
C  4.03 11.62 25.99                                                             
C  4.03 11.62 46.78                                                             
C  4.03 11.62 67.56                                                             
C  4.03 11.62 88.35                                                             
C  8.05  9.30  5.20                                                             
C  8.05  9.30 25.99                                                             
C  8.05  9.30 46.78                                                             
C  8.05  9.30 67.56                                                             
C  8.05  9.30 88.35                                                             
C 12.08  6.97  5.20                                                             
C 12.08  6.97 25.99                                                             
C 12.08  6.97 46.78                                                             
C 12.08  6.97 67.56                                                             
C 12.08  6.97 88.35                                                             
C 16.10  4.65  5.20                                                             
C 16.10  4.65 25.99                                                             
C 16.10  4.65 46.78                                                             
C 16.10  4.65 67.56                                                             
C 16.10  4.65 88.35                                                             
C 20.13  2.32  5.20                                                             
C 20.13  2.32 25.99                                                             
C 20.13  2.32 46.78                                                             
C 20.13  2.32 67.56                                                             
C 20.13  2.32 88.35                                                             
C 24.16  0.00  5.20                                                             
C 24.16  0.00 25.99                                                             
C 24.16  0.00 46.78                                                             
C 24.16  0.00 67.56                                                             
C 24.16  0.00 88.35                                                             
C  4.03 16.27  5.20                                                             
C  4.03 16.27 25.99                                                             
C  4.03 16.27 46.78                                                             
C  4.03 16.27 67.56                                                             
C  4.03 16.27 88.35                                                             
C  8.05 13.95  5.20                                                             
C  8.05 13.95 25.99                                                             
C  8.05 13.95 46.78                                                             
C  8.05 13.95 67.56                                                             
C  8.05 13.95 88.35                                                             
C 12.08 11.62  5.20                                                             
C 12.08 11.62 25.99                                                             
C 12.08 11.62 46.78                                                             
C 12.08 11.62 67.56                                                             
C 12.08 11.62 88.35                                                             
C 16.10  9.30  5.20                                                             
C 16.10  9.30 25.99                                                             
C 16.10  9.30 46.78                                                             
C 16.10  9.30 67.56                                                             
C 16.10  9.30 88.35                                                             
C 20.13  6.97  5.20                                                             
C 20.13  6.97 25.99                                                             
C 20.13  6.97 46.78                                                             
C 20.13  6.97 67.56                                                             
C 20.13  6.97 88.35                                                             
C 24.16  4.65  5.20                                                             
C 24.16  4.65 25.99                                                             
C 24.16  4.65 46.78                                                             
C 24.16  4.65 67.56                                                             
C 24.16  4.65 88.35                                                             
C 28.18  2.32  5.20                                                             
C 28.18  2.32 25.99                                                             
C 28.18  2.32 46.78                                                             
C 28.18  2.32 67.56                                                             
C 28.18  2.32 88.35                                                             
C 12.08 16.27  5.20                                                             
C 12.08 16.27 25.99                                                             
C 12.08 16.27 46.78                                                             
C 12.08 16.27 67.56                                                             
C 12.08 16.27 88.35                                                             
C 16.10 13.95  5.20                                                             
C 16.10 13.95 25.99                                                             
C 16.10 13.95 46.78                                                             
C 16.10 13.95 67.56                                                             
C 16.10 13.95 88.35                                                             
C 20.13 11.62  5.20                                                             
C 20.13 11.62 25.99                                                             
C 20.13 11.62 46.78                                                             
C 20.13 11.62 67.56                                                             
C 20.13 11.62 88.35                                                             
C 24.16  9.30  5.20                                                             
C 24.16  9.30 25.99                                                             
C 24.16  9.30 46.78                                                             
C 24.16  9.30 67.56                                                             
C 24.16  9.30 88.35                                                             
C 28.18  6.97  5.20                                                             
C 28.18  6.97 25.99                                                             
C 28.18  6.97 46.78                                                             
C 28.18  6.97 67.56                                                             
C 28.18  6.97 88.35                                                             
C 20.13 16.27  5.20                                                             
C 20.13 16.27 25.99                                                             
C 20.13 16.27 46.78                                                             
C 20.13 16.27 67.56                                                             
C 20.13 16.27 88.35                                                             
C 24.16 13.95  5.20                                                             
C 24.16 13.95 25.99                                                             
C 24.16 13.95 46.78                                                             
C 24.16 13.95 67.56                                                             
C 24.16 13.95 88.35                                                             
C 28.18 11.62  5.20                                                             
C 28.18 11.62 25.99                                                             
C 28.18 11.62 46.78                                                             
C 28.18 11.62 67.56                                                             
C 28.18 11.62 88.35                                                             
C 28.18 16.27  5.20                                                             
C 28.18 16.27 25.99                                                             
C 28.18 16.27 46.78                                                             
C 28.18 16.27 67.56                                                             
C 28.18 16.27 88.35                                                             
C  0.00  0.00 15.59                                                             
C  0.00  0.00 36.38                                                             
C  0.00  0.00 57.17                                                             
C  0.00  0.00 77.96                                                             
C  0.00  0.00 98.75                                                             
C  0.00  4.65 15.59                                                             
C  0.00  4.65 36.38                                                             
C  0.00  4.65 57.17                                                             
C  0.00  4.65 77.96                                                             
C  0.00  4.65 98.75                                                             
C  4.03  2.32 15.59                                                             
C  4.03  2.32 36.38                                                             
C  4.03  2.32 57.17                                                             
C  4.03  2.32 77.96                                                             
C  4.03  2.32 98.75                                                             
C  8.05  0.00 15.59                                                             
C  8.05  0.00 36.38                                                             
C  8.05  0.00 57.17                                                             
C  8.05  0.00 77.96                                                             
C  8.05  0.00 98.75                                                             
C  0.00  9.30 15.59                                                             
C  0.00  9.30 36.38                                                             
C  0.00  9.30 57.17                                                             
C  0.00  9.30 77.96                                                             
C  0.00  9.30 98.75                                                             
C  4.03  6.97 15.59                                                             
C  4.03  6.97 36.38                                                             
C  4.03  6.97 57.17                                                             
C  4.03  6.97 77.96                                                             
C  4.03  6.97 98.75                                                             
C  8.05  4.65 15.59                                                             
C  8.05  4.65 36.38                                                             
C  8.05  4.65 57.17                                                             
C  8.05  4.65 77.96                                                             
C  8.05  4.65 98.75                                                             
C 12.08  2.32 15.59                                                             
C 12.08  2.32 36.38                                                             
C 12.08  2.32 57.17                                                             
C 12.08  2.32 77.96                                                             
C 12.08  2.32 98.75                                                             
C 16.10  0.00 15.59                                                             
C 16.10  0.00 36.38                                                             
C 16.10  0.00 57.17                                                             
C 16.10  0.00 77.96                                                             
C 16.10  0.00 98.75                                                             
C  0.00 13.95 15.59                                                             
C  0.00 13.95 36.38                                                             
C  0.00 13.95 57.17                                                             
C  0.00 13.95 77.96                                                             
C  0.00 13.95 98.75                                                             
C  4.03 11.62 15.59                                                             
C  4.03 11.62 36.38                                                             
C  4.03 11.62 57.17                                                             
C  4.03 11.62 77.96                                                             
C  4.03 11.62 98.75                                                             
C  8.05  9.30 15.59                                                             
C  8.05  9.30 36.38                                                             
C  8.05  9.30 57.17                                                             
C  8.05  9.30 77.96                                                             
C  8.05  9.30 98.75                                                             
C 12.08  6.97 15.59                                                             
C 12.08  6.97 36.38                                                             
C 12.08  6.97 57.17                                                             
C 12.08  6.97 77.96                                                             
C 12.08  6.97 98.75                                                             
C 16.10  4.65 15.59                                                             
C 16.10  4.65 36.38                                                             
C 16.10  4.65 57.17                                                             
C 16.10  4.65 77.96                                                             
C 16.10  4.65 98.75                                                             
C 20.13  2.32 15.59                                                             
C 20.13  2.32 36.38                                                             
C 20.13  2.32 57.17                                                             
C 20.13  2.32 77.96                                                             
C 20.13  2.32 98.75                                                             
C 24.16  0.00 15.59                                                             
C 24.16  0.00 36.38                                                             
C 24.16  0.00 57.17                                                             
C 24.16  0.00 77.96                                                             
C 24.16  0.00 98.75                                                             
C  4.03 16.27 15.59                                                             
C  4.03 16.27 36.38                                                             
C  4.03 16.27 57.17                                                             
C  4.03 16.27 77.96                                                             
C  4.03 16.27 98.75                                                             
C  8.05 13.95 15.59                                                             
C  8.05 13.95 36.38                                                             
C  8.05 13.95 57.17                                                             
C  8.05 13.95 77.96                                                             
C  8.05 13.95 98.75                                                             
C 12.08 11.62 15.59                                                             
C 12.08 11.62 36.38                                                             
C 12.08 11.62 57.17                                                             
C 12.08 11.62 77.96                                                             
C 12.08 11.62 98.75                                                             
C 16.10  9.30 15.59                                                             
C 16.10  9.30 36.38                                                             
C 16.10  9.30 57.17                                                             
C 16.10  9.30 77.96                                                             
C 16.10  9.30 98.75                                                             
C 20.13  6.97 15.59                                                             
C 20.13  6.97 36.38                                                             
C 20.13  6.97 57.17                                                             
C 20.13  6.97 77.96                                                             
C 20.13  6.97 98.75                                                             
C 24.16  4.65 15.59                                                             
C 24.16  4.65 36.38                                                             
C 24.16  4.65 57.17                                                             
C 24.16  4.65 77.96                                                             
C 24.16  4.65 98.75                                                             
C 28.18  2.32 15.59                                                             
C 28.18  2.32 36.38                                                             
C 28.18  2.32 57.17                                                             
C 28.18  2.32 77.96                                                             
C 28.18  2.32 98.75                                                             
C 12.08 16.27 15.59                                                             
C 12.08 16.27 36.38                                                             
C 12.08 16.27 57.17                                                             
C 12.08 16.27 77.96                                                             
C 12.08 16.27 98.75                                                             
C 16.10 13.95 15.59                                                             
C 16.10 13.95 36.38                                                             
C 16.10 13.95 57.17                                                             
C 16.10 13.95 77.96                                                             
C 16.10 13.95 98.75                                                             
C 20.13 11.62 15.59                                                             
C 20.13 11.62 36.38                                                             
C 20.13 11.62 57.17                                                             
C 20.13 11.62 77.96                                                             
C 20.13 11.62 98.75                                                             
C 24.16  9.30 15.59                                                             
C 24.16  9.30 36.38                                                             
C 24.16  9.30 57.17                                                             
C 24.16  9.30 77.96                                                             
C 24.16  9.30 98.75                                                             
C 28.18  6.97 15.59                                                             
C 28.18  6.97 36.38                                                             
C 28.18  6.97 57.17                                                             
C 28.18  6.97 77.96                                                             
C 28.18  6.97 98.75                                                             
C 20.13 16.27 15.59                                                             
C 20.13 16.27 36.38                                                             
C 20.13 16.27 57.17                                                             
C 20.13 16.27 77.96                                                             
C 20.13 16.27 98.75                                                             
C 24.16 13.95 15.59                                                             
C 24.16 13.95 36.38                                                             
C 24.16 13.95 57.17                                                             
C 24.16 13.95 77.96                                                             
C 24.16 13.95 98.75                                                             
C 28.18 11.62 15.59                                                             
C 28.18 11.62 36.38                                                             
C 28.18 11.62 57.17                                                             
C 28.18 11.62 77.96                                                             
C 28.18 11.62 98.75                                                             
C 28.18 16.27 15.59                                                             
C 28.18 16.27 36.38                                                             
C 28.18 16.27 57.17                                                             
C 28.18 16.27 77.96                                                             
C 28.18 16.27 98.75                                                             
C  1.34  2.32  5.20                                                             
C  1.34  2.32 25.99                                                             
C  1.34  2.32 46.78                                                             
C  1.34  2.32 67.56                                                             
C  1.34  2.32 88.35                                                             
C  5.37  0.00  5.20                                                             
C  5.37  0.00 25.99                                                             
C  5.37  0.00 46.78                                                             
C  5.37  0.00 67.56                                                             
C  5.37  0.00 88.35                                                             
C  1.34  6.97  5.20                                                             
C  1.34  6.97 25.99                                                             
C  1.34  6.97 46.78                                                             
C  1.34  6.97 67.56                                                             
C  1.34  6.97 88.35                                                             
C  5.37  4.65  5.20                                                             
C  5.37  4.65 25.99                                                             
C  5.37  4.65 46.78                                                             
C  5.37  4.65 67.56                                                             
C  5.37  4.65 88.35                                                             
C  9.39  2.32  5.20                                                             
C  9.39  2.32 25.99                                                             
C  9.39  2.32 46.78                                                             
C  9.39  2.32 67.56                                                             
C  9.39  2.32 88.35                                                             
C 13.42  0.00  5.20                                                             
C 13.42  0.00 25.99                                                             
C 13.42  0.00 46.78                                                             
C 13.42  0.00 67.56                                                             
C 13.42  0.00 88.35                                                             
C  1.34 11.62  5.20                                                             
C  1.34 11.62 25.99                                                             
C  1.34 11.62 46.78                                                             
C  1.34 11.62 67.56                                                             
C  1.34 11.62 88.35                                                             
C  5.37  9.30  5.20                                                             
C  5.37  9.30 25.99                                                             
C  5.37  9.30 46.78                                                             
C  5.37  9.30 67.56                                                             
C  5.37  9.30 88.35                                                             
C  9.39  6.97  5.20                                                             
C  9.39  6.97 25.99                                                             
C  9.39  6.97 46.78                                                             
C  9.39  6.97 67.56                                                             
C  9.39  6.97 88.35                                                             
C 13.42  4.65  5.20                                                             
C 13.42  4.65 25.99                                                             
C 13.42  4.65 46.78                                                             
C 13.42  4.65 67.56                                                             
C 13.42  4.65 88.35                                                             
C 17.45  2.32  5.20                                                             
C 17.45  2.32 25.99                                                             
C 17.45  2.32 46.78                                                             
C 17.45  2.32 67.56                                                             
C 17.45  2.32 88.35                                                             
C 21.47  0.00  5.20                                                             
C 21.47  0.00 25.99                                                             
C 21.47  0.00 46.78                                                             
C 21.47  0.00 67.56                                                             
C 21.47  0.00 88.35                                                             
C  1.34 16.27  5.20                                                             
C  1.34 16.27 25.99                                                             
C  1.34 16.27 46.78                                                             
C  1.34 16.27 67.56                                                             
C  1.34 16.27 88.35                                                             
C  5.37 13.95  5.20                                                             
C  5.37 13.95 25.99                                                             
C  5.37 13.95 46.78                                                             
C  5.37 13.95 67.56                                                             
C  5.37 13.95 88.35                                                             
C  9.39 11.62  5.20                                                             
C  9.39 11.62 25.99                                                             
C  9.39 11.62 46.78                                                             
C  9.39 11.62 67.56                                                             
C  9.39 11.62 88.35                                                             
C 13.42  9.30  5.20                                                             
C 13.42  9.30 25.99                                                             
C 13.42  9.30 46.78                                                             
C 13.42  9.30 67.56                                                             
C 13.42  9.30 88.35                                                             
C 17.45  6.97  5.20                                                             
C 17.45  6.97 25.99                                                             
C 17.45  6.97 46.78                                                             
C 17.45  6.97 67.56                                                             
C 17.45  6.97 88.35                                                             
C 21.47  4.65  5.20                                                             
C 21.47  4.65 25.99                                                             
C 21.47  4.65 46.78                                                             
C 21.47  4.65 67.56                                                             
C 21.47  4.65 88.35                                                             
C 25.50  2.32  5.20                                                             
C 25.50  2.32 25.99                                                             
C 25.50  2.32 46.78                                                             
C 25.50  2.32 67.56                                                             
C 25.50  2.32 88.35                                                             
C 29.52  0.00  5.20                                                             
C 29.52  0.00 25.99                                                             
C 29.52  0.00 46.78                                                             
C 29.52  0.00 67.56                                                             
C 29.52  0.00 88.35                                                             
C  9.39 16.27  5.20                                                             
C  9.39 16.27 25.99                                                             
C  9.39 16.27 46.78                                                             
C  9.39 16.27 67.56                                                             
C  9.39 16.27 88.35                                                             
C 13.42 13.95  5.20                                                             
C 13.42 13.95 25.99                                                             
C 13.42 13.95 46.78                                                             
C 13.42 13.95 67.56                                                             
C 13.42 13.95 88.35                                                             
C 17.45 11.62  5.20                                                             
C 17.45 11.62 25.99                                                             
C 17.45 11.62 46.78                                                             
C 17.45 11.62 67.56                                                             
C 17.45 11.62 88.35                                                             
C 21.47  9.30  5.20                                                             
C 21.47  9.30 25.99                                                             
C 21.47  9.30 46.78                                                             
C 21.47  9.30 67.56                                                             
C 21.47  9.30 88.35                                                             
C 25.50  6.97  5.20                                                             
C 25.50  6.97 25.99                                                             
C 25.50  6.97 46.78                                                             
C 25.50  6.97 67.56                                                             
C 25.50  6.97 88.35                                                             
C 29.52  4.65  5.20                                                             
C 29.52  4.65 25.99                                                             
C 29.52  4.65 46.78                                                             
C 29.52  4.65 67.56                                                             
C 29.52  4.65 88.35                                                             
C 17.45 16.27  5.20                                                             
C 17.45 16.27 25.99                                                             
C 17.45 16.27 46.78                                                             
C 17.45 16.27 67.56                                                             
C 17.45 16.27 88.35                                                             
C 21.47 13.95  5.20                                                             
C 21.47 13.95 25.99                                                             
C 21.47 13.95 46.78                                                             
C 21.47 13.95 67.56                                                             
C 21.47 13.95 88.35                                                             
C 25.50 11.62  5.20                                                             
C 25.50 11.62 25.99                                                             
C 25.50 11.62 46.78                                                             
C 25.50 11.62 67.56                                                             
C 25.50 11.62 88.35                                                             
C 29.52  9.30  5.20                                                             
C 29.52  9.30 25.99                                                             
C 29.52  9.30 46.78                                                             
C 29.52  9.30 67.56                                                             
C 29.52  9.30 88.35                                                             
C 25.50 16.27  5.20                                                             
C 25.50 16.27 25.99                                                             
C 25.50 16.27 46.78                                                             
C 25.50 16.27 67.56                                                             
C 25.50 16.27 88.35                                                             
C 29.52 13.95  5.20                                                             
C 29.52 13.95 25.99                                                             
C 29.52 13.95 46.78                                                             
C 29.52 13.95 67.56                                                             
C 29.52 13.95 88.35                                                             
C  2.68  0.00 15.59                                                             
C  2.68  0.00 36.38                                                             
C  2.68  0.00 57.17                                                             
C  2.68  0.00 77.96                                                             
C  2.68  0.00 98.75                                                             
C  2.68  4.65 15.59                                                             
C  2.68  4.65 36.38                                                             
C  2.68  4.65 57.17                                                             
C  2.68  4.65 77.96                                                             
C  2.68  4.65 98.75                                                             
C  6.71  2.32 15.59                                                             
C  6.71  2.32 36.38                                                             
C  6.71  2.32 57.17                                                             
C  6.71  2.32 77.96                                                             
C  6.71  2.32 98.75                                                             
C 10.74  0.00 15.59                                                             
C 10.74  0.00 36.38                                                             
C 10.74  0.00 57.17                                                             
C 10.74  0.00 77.96                                                             
C 10.74  0.00 98.75                                                             
C  2.68  9.30 15.59                                                             
C  2.68  9.30 36.38                                                             
C  2.68  9.30 57.17                                                             
C  2.68  9.30 77.96                                                             
C  2.68  9.30 98.75                                                             
C  6.71  6.97 15.59                                                             
C  6.71  6.97 36.38                                                             
C  6.71  6.97 57.17                                                             
C  6.71  6.97 77.96                                                             
C  6.71  6.97 98.75                                                             
C 10.74  4.65 15.59                                                             
C 10.74  4.65 36.38                                                             
C 10.74  4.65 57.17                                                             
C 10.74  4.65 77.96                                                             
C 10.74  4.65 98.75                                                             
C 14.76  2.32 15.59                                                             
C 14.76  2.32 36.38                                                             
C 14.76  2.32 57.17                                                             
C 14.76  2.32 77.96                                                             
C 14.76  2.32 98.75                                                             
C 18.79  0.00 15.59                                                             
C 18.79  0.00 36.38                                                             
C 18.79  0.00 57.17                                                             
C 18.79  0.00 77.96                                                             
C 18.79  0.00 98.75                                                             
C  2.68 13.95 15.59                                                             
C  2.68 13.95 36.38                                                             
C  2.68 13.95 57.17                                                             
C  2.68 13.95 77.96                                                             
C  2.68 13.95 98.75                                                             
C  6.71 11.62 15.59                                                             
C  6.71 11.62 36.38                                                             
C  6.71 11.62 57.17                                                             
C  6.71 11.62 77.96                                                             
C  6.71 11.62 98.75                                                             
C 10.74  9.30 15.59                                                             
C 10.74  9.30 36.38                                                             
C 10.74  9.30 57.17                                                             
C 10.74  9.30 77.96                                                             
C 10.74  9.30 98.75                                                             
C 14.76  6.97 15.59                                                             
C 14.76  6.97 36.38                                                             
C 14.76  6.97 57.17                                                             
C 14.76  6.97 77.96                                                             
C 14.76  6.97 98.75                                                             
C 18.79  4.65 15.59                                                             
C 18.79  4.65 36.38                                                             
C 18.79  4.65 57.17                                                             
C 18.79  4.65 77.96                                                             
C 18.79  4.65 98.75                                                             
C 22.81  2.32 15.59                                                             
C 22.81  2.32 36.38                                                             
C 22.81  2.32 57.17                                                             
C 22.81  2.32 77.96                                                             
C 22.81  2.32 98.75                                                             
C 26.84  0.00 15.59                                                             
C 26.84  0.00 36.38                                                             
C 26.84  0.00 57.17                                                             
C 26.84  0.00 77.96                                                             
C 26.84  0.00 98.75                                                             
C  6.71 16.27 15.59                                                             
C  6.71 16.27 36.38                                                             
C  6.71 16.27 57.17                                                             
C  6.71 16.27 77.96                                                             
C  6.71 16.27 98.75                                                             
C 10.74 13.95 15.59                                                             
C 10.74 13.95 36.38                                                             
C 10.74 13.95 57.17                                                             
C 10.74 13.95 77.96                                                             
C 10.74 13.95 98.75                                                             
C 14.76 11.62 15.59                                                             
C 14.76 11.62 36.38                                                             
C 14.76 11.62 57.17                                                             
C 14.76 11.62 77.96                                                             
C 14.76 11.62 98.75                                                             
C 18.79  9.30 15.59                                                             
C 18.79  9.30 36.38                                                             
C 18.79  9.30 57.17                                                             
C 18.79  9.30 77.96                                                             
C 18.79  9.30 98.75                                                             
C 22.81  6.97 15.59                                                             
C 22.81  6.97 36.38                                                             
C 22.81  6.97 57.17                                                             
C 22.81  6.97 77.96                                                             
C 22.81  6.97 98.75                                                             
C 26.84  4.65 15.59                                                             
C 26.84  4.65 36.38                                                             
C 26.84  4.65 57.17                                                             
C 26.84  4.65 77.96                                                             
C 26.84  4.65 98.75                                                             
C 30.86  2.32 15.59                                                             
C 30.86  2.32 36.38                                                             
C 30.86  2.32 57.17                                                             
C 30.86  2.32 77.96                                                             
C 30.86  2.32 98.75                                                             
C 14.76 16.27 15.59                                                             
C 14.76 16.27 36.38                                                             
C 14.76 16.27 57.17                                                             
C 14.76 16.27 77.96                                                             
C 14.76 16.27 98.75                                                             
C 18.79 13.95 15.59                                                             
C 18.79 13.95 36.38                                                             
C 18.79 13.95 57.17                                                             
C 18.79 13.95 77.96                                                             
C 18.79 13.95 98.75                                                             
C 22.81 11.62 15.59                                                             
C 22.81 11.62 36.38                                                             
C 22.81 11.62 57.17                                                             
C 22.81 11.62 77.96                                                             
C 22.81 11.62 98.75                                                             
C 26.84  9.30 15.59                                                             
C 26.84  9.30 36.38                                                             
C 26.84  9.30 57.17                                                             
C 26.84  9.30 77.96                                                             
C 26.84  9.30 98.75                                                             
C 30.86  6.97 15.59                                                             
C 30.86  6.97 36.38                                                             
C 30.86  6.97 57.17                                                             
C 30.86  6.97 77.96                                                             
C 30.86  6.97 98.75                                                             
C 22.81 16.27 15.59                                                             
C 22.81 16.27 36.38                                                             
C 22.81 16.27 57.17                                                             
C 22.81 16.27 77.96                                                             
C 22.81 16.27 98.75                                                             
C 26.84 13.95 15.59                                                             
C 26.84 13.95 36.38                                                             
C 26.84 13.95 57.17                                                             
C 26.84 13.95 77.96                                                             
C 26.84 13.95 98.75                                                             
C 30.86 11.62 15.59                                                             
C 30.86 11.62 36.38                                                             
C 30.86 11.62 57.17                                                             
C 30.86 11.62 77.96                                                             
C 30.86 11.62 98.75                                                             
C 30.86 16.27 15.59                                                             
C 30.86 16.27 36.38                                                             
C 30.86 16.27 57.17                                                             
C 30.86 16.27 77.96                                                             
C 30.86 16.27 98.75                                                             
%ENDBLOCK POSITIONS_ABS                                                         

--------------------------------------------------------------------------------
-------------------------------- END INPUT FILE --------------------------------
--------------------------------------------------------------------------------


 
<<<<<<<<<<<<<<<<<<<<<<<<<<<<<<<<< Full system >>>>>>>>>>>>>>>>>>>>>>>>>>>>>>>>>>
<<<<<<<<<<<<<<<<<<<<<<<<<<< PAW Dataset information >>>>>>>>>>>>>>>>>>>>>>>>>>>
File: ~/pp/paw/c_pbe_abinit.paw; rc = 1.25 bohr; shape type =  3; rshape = 1.25 bohr;
  Atomic number:  6;  ionic charge:  4.000000
    Partial Wave 1: l = 0
    Partial Wave 2: l = 0
    Partial Wave 3: l = 1
    Partial Wave 4: l = 1
  Core charge supplied for Nonlinear Core Corrections
<<<<<<<<<<<<<<<<<<<<<<<<<<<<<<<<<<<<<<< >>>>>>>>>>>>>>>>>>>>>>>>>>>>>>>>>>>>>>>

-------------------------- Atom counting information ---------------------------
Symbol    Natoms    Nngwfs    Nprojs
  C        640      2560      5120
.......   ......    ......    ......
Totals:    640      2560      5120
--------------------------------------------------------------------------------

=============================== PSINC grid sizes ===============================
                      Simulation cell:   63 x  35 x 205
                              FFT-box:   63 x  35 x 117
                                  PPD:    7 x   5 x   1
Grid space d1=  0.511269841270a0 (KE cutoff=  29.06054Eh = 790.77748eV)
Grid space d2=  0.531142857143a0 (KE cutoff=  26.92659Eh = 732.70972eV)
Grid space d3=  0.507024390244a0 (KE cutoff=  29.54924Eh = 804.07570eV)
================================================================================
  
WARNING in cell_grid_distribute:
Average of less than one 23-slab per node, so workload cannot be
equally balanced between nodes.

********************* Fourier parallelisation information **********************
       Coarse grid (whole simulation cell) dimensions:     63    35   205
          Real-space ('12') slabs/node (min max mean):      5     6     5
         Recip-space ('23') slabs/node (min max mean):      0     1     0
********************************************************************************

********************* Fourier parallelisation information **********************
       Double grid (whole simulation cell) dimensions:    126    70   410
          Real-space ('12') slabs/node (min max mean):     10    11    10
         Recip-space ('23') slabs/node (min max mean):      1     2     1
********************************************************************************

Atom SCF Calculation for C  : Z (AE atom) =   6 : Z (PS atom) =   4
Config String: 2s2 2p2
Orbitals (num,occ):  2     2.00 2.00
Orbitals   (num,l):  2        0    1
Real-space Grid (nr,dr,rmax): 1293    0.0069659443    9.0000000000
Spherical Bessel Basis (nsws,lmax,cutoff):   37    2  161.4736382572
Confining potential (l,width,scale):  0    3.0000000000  100.0000000000
Confining potential (l,width,scale):  1    3.0000000000  100.0000000000
  1         -5.4795203654   -1.3252209296    4.5135257941   -1.6370402169
  2         -5.4480859746   -1.4027979239    4.4305951748   -1.6109819005
  3         -5.4553164790   -1.4212834043    4.4102618304   -1.6059039466
  4         -5.4627841133   -1.4247091338    4.4065122085   -1.6052907585
  5         -5.4662306655   -1.4266814823    4.4043715292   -1.6049352647
  6         -5.4679520247   -1.4277352742    4.4032348712   -1.6047493439
  7         -5.4688359568   -1.4282868030    4.4026432892   -1.6046541449
  8         -5.4692951245   -1.4285734530    4.4023374832   -1.6046056242
  9         -5.4695349887   -1.4287220785    4.4021797781   -1.6045809101
 10         -5.4696606791   -1.4287991022    4.4020984905   -1.6045683155
 11         -5.4697266650   -1.4288390363    4.4020565747   -1.6045618912
 12         -5.4697613504   -1.4288597596    4.4020349416   -1.6045586107
 13         -5.4697795998   -1.4288705262    4.4020237638   -1.6045569335
 14         -5.4697892089   -1.4288761271    4.4020179806   -1.6045560749
 15         -5.4697942720   -1.4288790448    4.4020149844   -1.6045556348
 16         -5.4697969415   -1.4288805668    4.4020134298   -1.6045554088
 17         -5.4697983498   -1.4288813619    4.4020126220   -1.6045552927
 18         -5.4697990933   -1.4288817779    4.4020122017   -1.6045552329
 19         -5.4697994860   -1.4288819957    4.4020119826   -1.6045552021
 20         -5.4697996936   -1.4288821100    4.4020118683   -1.6045551862
 21         -5.4697998034   -1.4288821701    4.4020118085   -1.6045551780
 22         -5.4697998614   -1.4288822017    4.4020117772   -1.6045551737
Atom SCF converged after  22 iterations to a total energy of     -5.46979986

Determining parallel strategy ...
... using space-filling curve
... NGWF load balancing: max     64;  min     64;  average     64
... Projector load balancing: max    128;  min    128;  average    128
... done
Calculating Ewald energy ...
              Ewald: real-space energy =    9952.144771
        Ewald: reciprocal-space energy =      18.090377
         Ewald: (sum_charge)**2 Energy =    9594.867932
         Ewald: (sum_charge**2) Energy =     758.540913
                          Ewald Energy =    -383.173696
Basis initialisation ...... NGWF spheres initialised
... Projector spheres initialised
... NGWF tight boxes initialised
... Projector tight boxes initialised
... Tight-boxes gathered
... NGWF basis size (local,global):     692532  27889120
... PAW projector initialisation
... done

============================= Charge Augmentation ==============================
                           Aug box size:   11 x  11 x  11
================================================================================

========================== Sparse matrix information ===========================
                        Overlap matrix filling:  26.88%
                        Density kernel filling: 100.00%
              NGWF-Proj overlap matrix filling:   5.47%
                    Aug Overlap matrix filling:  27.03%
                    Hamiltonian matrix filling:  27.03%
                  NGWF diagonal matrix filling:   0.16%
                             KS matrix filling: 100.00% 
                           KSKS matrix filling: 100.00% 
================================================================================

Sparse matrix initialisation ... done
NGWF initialisation ...... done
============ Calculation of NGWF S^-1 using Hotelling algorithm ================ 
         Iteration  |  Frobenius norm and Maximum abs value    (of I-S*S_n^-1)   
               1       0.48715994E+02     0.97118521E+00
               2       0.47279855E+02     0.94448269E+00
               3       0.45221780E+02     0.89655421E+00
               4       0.42658647E+02     0.81793624E+00
               5       0.39640021E+02     0.71507747E+00
               6       0.36236745E+02     0.66291954E+00
               7       0.32826974E+02     0.61817329E+00
               8       0.29526607E+02     0.57894166E+00
               9       0.25763018E+02     0.52945307E+00
              10       0.20870863E+02     0.44885043E+00
              11       0.14618011E+02     0.32618198E+00
              12       0.78851289E+01     0.17796841E+00
              13       0.26741424E+01     0.57709336E-01
              14       0.37002731E+00     0.71600346E-02
              15       0.85983840E-02     0.13824195E-03
              16       0.64275006E-05     0.70545206E-07
              17       0.54966950E-11     0.38080650E-13
================================================================================
Calculating core density ...
================================= Core Density =================================
               Core den box size:   21 x  21 x  21
================================================================================
 ... done
Up spin density kernel initialisation ...... done

Writing density kernel to file "5.500496_GO_manual_4x64graphite.dkn" ... done

>>> Optimising kernel for current NGWFs:

--------------------------- Ensemble-DFT optimisation --------------------------
Running ScaLAPACK on   40 processor(s).

--------------------------------------------------------------------------------
  Iter                              Commutator    Free_energy(A=E-TS)     DeltaA
#    0                          0.000036498329   -3645.66533385840785  -3.65E+03

Step                       =       0.381966011250
Energy                     =   -3645.665309107337
Entropy (-TS)              =      -0.000024751073
Free energy (A=E-TS)       =   -3645.665333858408
Est. 0K Energy 0.5*(E+A)   =   -3645.665321482872
Residual Non-orthogonality =       0.000000000000
Residual N_electrons       =       0.000000000002

Spin          Integrated_Ne            Fermi_level     Delta_Fermi_level
   1      2559.999999999901         0.018492750305              1.85E-02

                           Spin 1          
     Orb      H-eigenvalues     Occupancies
       1 |    -0.7022112443    1.0000000000 | 
                          ------
    1276 |    -0.0183419816    0.9999911181 | 
    1277 |    -0.0183409624    0.9999911153 | 
    1278 |    -0.0183401535    0.9999911130 | 
    1279 |    -0.0183396834    0.9999911117 | 
    1280 |    -0.0183386075    0.9999911087 | 
                 - Gap at zero temperature -
    1281 |     0.0554568477    0.0000085264 | 
    1282 |     0.0554577206    0.0000085240 | 
    1283 |     0.0554579551    0.0000085234 | 
    1284 |     0.0554586188    0.0000085216 | 
    1285 |     0.0554588686    0.0000085209 | 
                          ------
    2560 |     0.8518963895    0.0000000000 | 

                       |  Abs_value |  Threshold | Converged
     Delta_Free_energy |   3.65E+03 |   1.00E-06 |        No
     Delta_Energy      |   3.65E+03 |   1.00E-04 |        No
     Delta_Entropy     |   2.48E-05 |   1.00E-04 |       Yes
     Commutator        |   3.65E-05 |   1.00E-05 |        No
     Delta_Fermi_level |   1.85E-02 |   1.00E-03 |        No

  Line search of the free energy minimum:
  Step_type        Step             Free_energy   Predicted_free_energy
.   Initial    0.000000    -3645.66533385840785
.    Trial1    0.381966    -3645.66682860471656
.    Trial2    0.618034    -3645.66722712410046
. Quadratic    0.734443    -3645.66727621710288    -3645.66727591264134

--------------------------------------------------------------------------------
  Iter                              Commutator    Free_energy(A=E-TS)     DeltaA
#    1                          0.000017330265   -3645.66727621710288  -1.94E-03

Step                       =       0.734442915270
Energy                     =   -3645.667250543220
Entropy (-TS)              =      -0.000025673868
Free energy (A=E-TS)       =   -3645.667276217103
Est. 0K Energy 0.5*(E+A)   =   -3645.667263380161
Residual Non-orthogonality =       0.000000000000
Residual N_electrons       =      -0.000000000015

Spin          Integrated_Ne            Fermi_level     Delta_Fermi_level
   1      2560.000000001736         0.008523812397             -9.97E-03

                           Spin 1          
     Orb      H-eigenvalues     Occupancies
       1 |    -0.7149021871    1.0000000000 | 
                          ------
    1276 |    -0.0282677676    0.9999909963 | 
    1277 |    -0.0282667646    0.9999909934 | 
    1278 |    -0.0282663612    0.9999909923 | 
    1279 |    -0.0282646015    0.9999909873 | 
    1280 |    -0.0282645108    0.9999909870 | 
                 - Gap at zero temperature -
    1281 |     0.0452778630    0.0000091111 | 
    1282 |     0.0452790438    0.0000091077 | 
    1283 |     0.0452802102    0.0000091043 | 
    1284 |     0.0452809670    0.0000091021 | 
    1285 |     0.0452812683    0.0000091013 | 
                          ------
    2560 |     0.8382838271    0.0000000000 | 

                       |  Abs_value |  Threshold | Converged
     Delta_Free_energy |   1.94E-03 |   1.00E-06 |        No
     Delta_Energy      |   1.94E-03 |   1.00E-04 |        No
     Delta_Entropy     |   9.23E-07 |   1.00E-04 |       Yes
     Commutator        |   1.73E-05 |   1.00E-05 |        No
     Delta_Fermi_level |   9.97E-03 |   1.00E-03 |        No

  Line search of the free energy minimum:
  Step_type        Step             Free_energy   Predicted_free_energy
.   Initial    0.000000    -3645.66727621710288
.    Trial1    0.734443    -3645.66681290487577
.    Trial2    0.280532    -3645.66759586658600
. Quadratic    0.286346    -3645.66759599967736    -3645.66759599841726

--------------------------------------------------------------------------------
  Iter                              Commutator    Free_energy(A=E-TS)     DeltaA
#    2                          0.000007336405   -3645.66759599967736  -3.20E-04

Step                       =       0.286346222875
Energy                     =   -3645.667570238760
Entropy (-TS)              =      -0.000025760905
Free energy (A=E-TS)       =   -3645.667595999677
Est. 0K Energy 0.5*(E+A)   =   -3645.667583119219
Residual Non-orthogonality =       0.000000000000
Residual N_electrons       =      -0.000000000012

Spin          Integrated_Ne            Fermi_level     Delta_Fermi_level
   1      2560.000000001589         0.007504054859             -1.02E-03

                           Spin 1          
     Orb      H-eigenvalues     Occupancies
       1 |    -0.7162087142    1.0000000000 | 
                          ------
    1276 |    -0.0292393990    0.9999908584 | 
    1277 |    -0.0292385821    0.9999908560 | 
    1278 |    -0.0292381691    0.9999908548 | 
    1279 |    -0.0292364414    0.9999908499 | 
    1280 |    -0.0292363232    0.9999908495 | 
                 - Gap at zero temperature -
    1281 |     0.0442824607    0.0000090413 | 
    1282 |     0.0442835462    0.0000090382 | 
    1283 |     0.0442845902    0.0000090352 | 
    1284 |     0.0442853227    0.0000090331 | 
    1285 |     0.0442856466    0.0000090322 | 
                          ------
    2560 |     0.8368832785    0.0000000000 | 

                       |  Abs_value |  Threshold | Converged
     Delta_Free_energy |   3.20E-04 |   1.00E-06 |        No
     Delta_Energy      |   3.20E-04 |   1.00E-04 |        No
     Delta_Entropy     |   8.70E-08 |   1.00E-04 |       Yes
     Commutator        |   7.34E-06 |   1.00E-05 |       Yes
     Delta_Fermi_level |   1.02E-03 |   1.00E-03 |        No

  Line search of the free energy minimum:
  Step_type        Step             Free_energy   Predicted_free_energy
.   Initial    0.000000    -3645.66759599967736
.    Trial1    0.286346    -3645.66764746464014
.    Trial2    0.558938    -3645.66765315281509
. Quadratic    0.459351    -3645.66765597148469    -3645.66765597160338

--------------------------------------------------------------------------------
  Iter                              Commutator    Free_energy(A=E-TS)     DeltaA
#    3                          0.000004441569   -3645.66765597148469  -6.00E-05

Step                       =       0.459350903826
Energy                     =   -3645.667630117180
Entropy (-TS)              =      -0.000025854302
Free energy (A=E-TS)       =   -3645.667655971485
Est. 0K Energy 0.5*(E+A)   =   -3645.667643044332
Residual Non-orthogonality =       0.000000000000
Residual N_electrons       =      -0.000000000002

Spin          Integrated_Ne            Fermi_level     Delta_Fermi_level
   1      2560.000000000393         0.006334470609             -1.17E-03

                           Spin 1          
     Orb      H-eigenvalues     Occupancies
       1 |    -0.7176947808    1.0000000000 | 
                          ------
    1276 |    -0.0303853100    0.9999907898 | 
    1277 |    -0.0303847650    0.9999907882 | 
    1278 |    -0.0303841281    0.9999907864 | 
    1279 |    -0.0303824773    0.9999907816 | 
    1280 |    -0.0303822954    0.9999907810 | 
                 - Gap at zero temperature -
    1281 |     0.0431113777    0.0000090455 | 
    1282 |     0.0431123724    0.0000090427 | 
    1283 |     0.0431133028    0.0000090400 | 
    1284 |     0.0431140165    0.0000090380 | 
    1285 |     0.0431143850    0.0000090370 | 
                          ------
    2560 |     0.8352998294    0.0000000000 | 

                       |  Abs_value |  Threshold | Converged
     Delta_Free_energy |   6.00E-05 |   1.00E-06 |        No
     Delta_Energy      |   5.99E-05 |   1.00E-04 |       Yes
     Delta_Entropy     |   9.34E-08 |   1.00E-04 |       Yes
     Commutator        |   4.44E-06 |   1.00E-05 |       Yes
     Delta_Fermi_level |   1.17E-03 |   1.00E-03 |        No

  Line search of the free energy minimum:
  Step_type        Step             Free_energy   Predicted_free_energy
.   Initial    0.000000    -3645.66765597148469
.    Trial1    0.459351    -3645.66767257193487
.    Trial2    0.665860    -3645.66765274459658
. Quadratic    0.320721    -3645.66767638575357    -3645.66767638609736

--------------------------------------------------------------------------------
  Iter                              Commutator    Free_energy(A=E-TS)     DeltaA
#    4                          0.000002605163   -3645.66767638575357  -2.04E-05

Step                       =       0.320721113696
Energy                     =   -3645.667650497724
Entropy (-TS)              =      -0.000025888025
[...]
 C   275 -- C   555       -0.10      5.37000
 C   274 -- C   554       -0.10      5.37000
 C   273 -- C   553       -0.10      5.37000
 C   272 -- C   552       -0.10      5.37000
 C   271 -- C   551       -0.10      5.37000
 C   270 -- C   550       -0.10      5.37000
 C   269 -- C   549       -0.10      5.37000
 C   268 -- C   548       -0.10      5.37000
 C   267 -- C   547       -0.10      5.37000
 C   266 -- C   546       -0.10      5.37000
 C   130 -- C   465       -0.10      5.37000
 C   129 -- C   464       -0.10      5.37000
 C   128 -- C   463       -0.10      5.37000
 C   127 -- C   462       -0.10      5.37000
 C   126 -- C   461       -0.10      5.37000
 C   240 -- C   525       -0.10      5.37000
 C   239 -- C   524       -0.10      5.37000
 C   238 -- C   523       -0.10      5.37000
 C   237 -- C   522       -0.10      5.37000
 C   236 -- C   521       -0.10      5.37000
 C    23 -- C   478       -0.10      5.37202
 C    49 -- C   469       -0.10      5.37202
 C    48 -- C   468       -0.10      5.37202
 C    47 -- C   467       -0.10      5.37202
 C    22 -- C   477       -0.10      5.37202
 C    46 -- C   466       -0.10      5.37202
 C    21 -- C   476       -0.10      5.37202
 C    25 -- C   480       -0.10      5.37202
 C    24 -- C   479       -0.10      5.37202
 C    50 -- C   470       -0.10      5.37202
 C    24 -- C   449       -0.10      5.37202
 C     6 -- C   416       -0.10      5.37202
 C    23 -- C   448       -0.10      5.37202
 C    22 -- C   447       -0.10      5.37202
 C    10 -- C   470       -0.10      5.37202
 C     5 -- C   450       -0.10      5.37202
 C    21 -- C   446       -0.10      5.37202
 C    10 -- C   420       -0.10      5.37202
 C     9 -- C   469       -0.10      5.37202
 C     9 -- C   419       -0.10      5.37202
 C     8 -- C   468       -0.10      5.37202
 C     4 -- C   449       -0.10      5.37202
 C     8 -- C   418       -0.10      5.37202
 C     2 -- C   447       -0.10      5.37202
 C     7 -- C   467       -0.10      5.37202
 C     7 -- C   417       -0.10      5.37202
 C     1 -- C   446       -0.10      5.37202
 C     6 -- C   466       -0.10      5.37202
 C    25 -- C   450       -0.10      5.37202
 C     3 -- C   448       -0.10      5.37202
 C   285 -- C   580       -0.10      5.37202
 C   284 -- C   579       -0.10      5.37202
 C   283 -- C   578       -0.10      5.37202
 C   282 -- C   577       -0.10      5.37202
 C   281 -- C   576       -0.10      5.37202
 C   260 -- C   605       -0.10      5.37202
 C   259 -- C   604       -0.10      5.37202
 C   258 -- C   603       -0.10      5.37202
 C   257 -- C   602       -0.10      5.37202
 C   256 -- C   601       -0.10      5.37202
 C   219 -- C   569       -0.10      5.37202
 C   218 -- C   568       -0.10      5.37202
 C   217 -- C   567       -0.10      5.37202
 C   216 -- C   566       -0.10      5.37202
 C    11 -- C   331       -0.10      5.37202
 C   205 -- C   550       -0.10      5.37202
 C   204 -- C   549       -0.10      5.37202
 C   203 -- C   548       -0.10      5.37202
 C   202 -- C   547       -0.10      5.37202
 C   201 -- C   546       -0.10      5.37202
 C    15 -- C   335       -0.10      5.37202
 C    30 -- C   355       -0.10      5.37202
 C    30 -- C   325       -0.10      5.37202
 C    14 -- C   334       -0.10      5.37202
 C    29 -- C   354       -0.10      5.37202
 C    29 -- C   324       -0.10      5.37202
 C   260 -- C   550       -0.10      5.37202
 C   259 -- C   549       -0.10      5.37202
 C    28 -- C   353       -0.10      5.37202
 C   258 -- C   548       -0.10      5.37202
 C   257 -- C   547       -0.10      5.37202
 C   256 -- C   546       -0.10      5.37202
 C    28 -- C   323       -0.10      5.37202
 C    27 -- C   352       -0.10      5.37202
 C    13 -- C   333       -0.10      5.37202
 C   250 -- C   540       -0.10      5.37202
 C   249 -- C   539       -0.10      5.37202
 C   248 -- C   538       -0.10      5.37202
 C   247 -- C   537       -0.10      5.37202
 C   246 -- C   536       -0.10      5.37202
 C    27 -- C   322       -0.10      5.37202
 C    26 -- C   351       -0.10      5.37202
 C    55 -- C   335       -0.10      5.37202
 C    26 -- C   321       -0.10      5.37202
 C    54 -- C   334       -0.10      5.37202
 C    12 -- C   332       -0.10      5.37202
 C    53 -- C   333       -0.10      5.37202
 C   230 -- C   580       -0.10      5.37202
 C   230 -- C   525       -0.10      5.37202
 C   229 -- C   579       -0.10      5.37202
 C   229 -- C   524       -0.10      5.37202
 C   228 -- C   578       -0.10      5.37202
 C    52 -- C   332       -0.10      5.37202
 C   228 -- C   523       -0.10      5.37202
 C   227 -- C   577       -0.10      5.37202
 C   227 -- C   522       -0.10      5.37202
 C   226 -- C   576       -0.10      5.37202
 C   226 -- C   521       -0.10      5.37202
 C    51 -- C   331       -0.10      5.37202
 C   220 -- C   570       -0.10      5.37202
 C   220 -- C   515       -0.10      5.37202
 C   219 -- C   514       -0.10      5.37202
 C   218 -- C   513       -0.10      5.37202
 C   217 -- C   512       -0.10      5.37202
 C   216 -- C   511       -0.10      5.37202
 C    95 -- C   425       -0.10      5.37202
 C    95 -- C   365       -0.10      5.37202
 C    94 -- C   424       -0.10      5.37202
 C    94 -- C   364       -0.10      5.37202
 C    93 -- C   423       -0.10      5.37202
 C   195 -- C   540       -0.10      5.37202
 C   195 -- C   500       -0.10      5.37202
 C    93 -- C   363       -0.10      5.37202
 C   194 -- C   539       -0.10      5.37202
 C    92 -- C   422       -0.10      5.37202
 C   194 -- C   499       -0.10      5.37202
 C   193 -- C   538       -0.10      5.37202
 C   193 -- C   498       -0.10      5.37202
 C    92 -- C   362       -0.10      5.37202
 C   192 -- C   537       -0.10      5.37202
 C    91 -- C   421       -0.10      5.37202
 C   192 -- C   497       -0.10      5.37202
 C   191 -- C   536       -0.10      5.37202
 C   191 -- C   496       -0.10      5.37202
 C    91 -- C   361       -0.10      5.37202
 C    85 -- C   355       -0.10      5.37202
 C   180 -- C   515       -0.10      5.37202
 C    40 -- C   365       -0.10      5.37202
 C    84 -- C   354       -0.10      5.37202
 C   179 -- C   514       -0.10      5.37202
 C    83 -- C   353       -0.10      5.37202
 C   178 -- C   513       -0.10      5.37202
 C   177 -- C   512       -0.10      5.37202
 C    82 -- C   352       -0.10      5.37202
 C    39 -- C   364       -0.10      5.37202
 C   176 -- C   511       -0.10      5.37202
 C    81 -- C   351       -0.10      5.37202
 C    38 -- C   363       -0.10      5.37202
 C    37 -- C   362       -0.10      5.37202
 C    36 -- C   361       -0.10      5.37202
 C    65 -- C   395       -0.10      5.37202
 C    65 -- C   345       -0.10      5.37202
 C    64 -- C   394       -0.10      5.37202
 C    64 -- C   344       -0.10      5.37202
 C    63 -- C   393       -0.10      5.37202
 C    63 -- C   343       -0.10      5.37202
 C    62 -- C   392       -0.10      5.37202
 C    62 -- C   342       -0.10      5.37202
 C    61 -- C   391       -0.10      5.37202
 C    61 -- C   341       -0.10      5.37202
 C   120 -- C   395       -0.10      5.37202
 C    55 -- C   385       -0.10      5.37202
 C   119 -- C   394       -0.10      5.37202
 C   118 -- C   393       -0.10      5.37202
 C   117 -- C   392       -0.10      5.37202
 C    54 -- C   384       -0.10      5.37202
 C   116 -- C   391       -0.10      5.37202
 C    53 -- C   383       -0.10      5.37202
 C    52 -- C   382       -0.10      5.37202
 C    51 -- C   381       -0.10      5.37202
 C   150 -- C   440       -0.10      5.37202
 C   149 -- C   439       -0.10      5.37202
 C   148 -- C   438       -0.10      5.37202
 C   147 -- C   437       -0.10      5.37202
 C   146 -- C   436       -0.10      5.37202
 C   135 -- C   460       -0.10      5.37202
 C   134 -- C   459       -0.10      5.37202
 C   133 -- C   458       -0.10      5.37202
 C   132 -- C   457       -0.10      5.37202
 C   131 -- C   456       -0.10      5.37202
 C   106 -- C   436       -0.10      5.37202
 C   106 -- C   376       -0.10      5.37202
 C    80 -- C   410       -0.10      5.37202
 C    79 -- C   409       -0.10      5.37202
 C    78 -- C   408       -0.10      5.37202
 C    77 -- C   407       -0.10      5.37202
 C    76 -- C   406       -0.10      5.37202
 C   135 -- C   410       -0.10      5.37202
 C   134 -- C   409       -0.10      5.37202
 C   133 -- C   408       -0.10      5.37202
 C   132 -- C   407       -0.10      5.37202
 C   131 -- C   406       -0.10      5.37202
 C   110 -- C   440       -0.10      5.37202
 C   110 -- C   380       -0.10      5.37202
 C   109 -- C   439       -0.10      5.37202
 C   109 -- C   379       -0.10      5.37202
 C   108 -- C   438       -0.10      5.37202
 C   108 -- C   378       -0.10      5.37202
 C   107 -- C   437       -0.10      5.37202
 C   107 -- C   377       -0.10      5.37202
 C   215 -- C   635       -0.10      5.38000
 C   214 -- C   634       -0.10      5.38000
 C   213 -- C   633       -0.10      5.38000
 C   212 -- C   632       -0.10      5.38000
 C   211 -- C   631       -0.10      5.38000
 C   190 -- C   620       -0.10      5.38000
 C   189 -- C   619       -0.10      5.38000
 C   188 -- C   618       -0.10      5.38000
 C   187 -- C   617       -0.10      5.38000
 C   186 -- C   616       -0.10      5.38000
 C   175 -- C   595       -0.10      5.38000
 C   174 -- C   594       -0.10      5.38000
 C   173 -- C   593       -0.10      5.38000
 C   172 -- C   592       -0.10      5.38000
 C   171 -- C   591       -0.10      5.38000
 C   245 -- C   640       -0.10      5.38000
 C   244 -- C   639       -0.10      5.38000
 C   243 -- C   638       -0.10      5.38000
 C   242 -- C   637       -0.10      5.38000
 C   241 -- C   636       -0.10      5.38000
==================================================


=================== Orbital energy and occupancy information ===================

      Total number of orbitals:    2560
        Occupancy sum (kernel):    1280.000000000
   Occupancy sum (eigenvalues):    1280.000000000
                 HOMO-LUMO gap:       0.000003178 Eh
                 Mid-gap level:       0.130557710 Eh

                        Orbital | Energy (Eh) | Occupancy
                            1    -0.622712122   1.0000000
                        .......   ...........   .........
                         1272     0.057659762   0.9999905
                         1273     0.057695767   0.9999904
                         1274     0.057698480   0.9999904
                         1275     0.057749384   0.9999902
                         1276     0.058050261   0.9999892
                         1277     0.058053106   0.9999892
                         1278     0.058163360   0.9999889
                         1279     0.058166078   0.9999888
                         1280     0.058217159   0.9999887
                         1281     0.130556121   0.0000106
                        ....... -- gap at 0K -- .........
                         1282     0.130559299   0.0000105
                         1283     0.130560073   0.0000105
                         1284     0.130561554   0.0000105
                         1285     0.130562854   0.0000105
                         1286     0.130806677   0.0000098
                         1287     0.130809785   0.0000097
                         1288     0.130810620   0.0000097
                         1289     0.130811977   0.0000097
                         1290     0.130813344   0.0000097
                         1291     0.131014459   0.0000091
                        .......   ...........   .........
                         2560     0.990592395   0.0000000

================================================================================

===================== Writing canonical molecular orbitals =====================
| Orbital  Energy (eV)  Norm     |
| HOMO      3.55261282  1.000000 | Writing "5.500496_GO_manual_4x64graphite_HOMO.cube" ... done
Writing "5.500496_GO_manual_4x64graphite_HOMO.dx" ... done
| LUMO      3.55269929  1.000000 | Writing "5.500496_GO_manual_4x64graphite_LUMO.cube" ... done
Writing "5.500496_GO_manual_4x64graphite_LUMO.dx" ... done
================================================================================
 
===================== Density of States (DOS) calculation ======================
Writing "5.500496_GO_manual_4x64graphite_DOS.txt" ...  done
================================================================================
 
Writing bands to file "5.500496_GO_manual_4x64graphite.val_bands" ... done
 
================ Projected Density of States (pDOS) calculation ================
 
Constructing AM resolved functions  ...... done
Writing NGWF plot files in formats: CUBE DX ...  done
 
Performing overlap integrals ...  done
 
Computing pDOS weights ...  done
 
All bands spilling parameter =   2.51 %
Occupancy-weighted spilling parameter =   1.00 %
 
 => Outputting data for OptaDOS <=
 
Writing pDOS weights to file "5.500496_GO_manual_4x64graphite.val_pdos_bin" ... done
 
Writing band gradients to file "5.500496_GO_manual_4x64graphite.val_dome_bin" ... done
 
Writing Castep output cell file to "5.500496_GO_manual_4x64graphite-out.cell" ... done
 
 => Computing Gaussian smeared pDOS <= 
Writing "5.500496_GO_manual_4x64graphite_PDOS.txt" ...  done
 
 => Computing Occupancy-weighted Gaussian smeared pDOS <= 
Writing "5.500496_GO_manual_4x64graphite_occ_PDOS.txt" ...  done
  => Band centres: 
 S band centre of group 1:  -15.635444 eV
 P band centre of group 1:   -8.507587 eV
  Band centres done. <=
  => Integrated number of electrons in each AM band: 
 S num electrons of group 1:  575.397332
 P num electrons of group 1: 1958.881227
  Integrated number of electrons done. <=
================================================================================

------------------------------ TIMING INFORMATION ------------------------------
AVERAGE TIME:    2092.008s on     40 node(s)                                    
TOTAL TIME:      2092.008s on     40 node(s)                                    
================= AVERAGE TIMINGS FROM ALL NODES (CUMULATIVE) ==================
|| TAG                                    #calls    cpu time   %total  Gflops ||
|| work_imbalance                       :     1        0.00s   0.000%  ------ ||
|| paw_tcore_hartree_on_grid            :     1        0.01s   0.000%  ------ ||
|| paw_tcore_density                    :     1        0.01s   0.000%  ------ ||
|| paw_sphere_density_on_grid           :     1        0.01s   0.001%  ------ ||
|| sparse_set_to_garbage                :   123        0.01s   0.001%  ------ ||
|| paw_dij_hartree                      :   246        0.03s   0.001%  ------ ||
|| basis_extract_function_from_box      :  1408        0.06s   0.003%  ------ ||
|| pseudo_make_structure_factor         :     1        0.08s   0.004%  ------ ||
|| paw_species_calc_proj_prec_mat       :     1        0.12s   0.006%  ------ ||
|| paw_dataset_init                     :     1        0.15s   0.007%  ------ ||
|| density_init_guess_real              :     1        0.18s   0.009%  ------ ||
|| restart_kernel_write                 :    12        0.66s   0.032%  ------ ||
|| ngwfs_initialise_from_radial         :     2        0.67s   0.032%  ------ ||
|| sparse_init                          :     1        0.73s   0.035%  ------ ||
|| dense_normal_eigensolve              :     1        1.05s   0.050%  ------ ||
|| hartree_on_grid                      :   185        1.82s   0.087%  ------ ||
|| projectors_init_fftbox_recip         :   111        2.24s   0.107%  ------ ||
|| fourier_apply_box_pair               :  2080        3.44s   0.165% 560.160 ||
|| basis_copy_function_to_box           : 17728        3.83s   0.183%  ------ ||
|| augmentation_screen_dij              :   190        4.09s   0.195%  ------ ||
|| sparse_trace                         :  2222        6.15s   0.294%  ------ ||
|| sparse_embed_hotelling_invert_embed  :    21        6.30s   0.301%  ------ ||
|| ngwf_gradient_coeffs                 :    11        6.65s   0.318%  ------ ||
|| sw_init                              :     1        6.73s   0.322%  ------ ||
|| ewald_calculate_energy               :     1        7.26s   0.347%  ------ ||
|| cell_grid_deposit_box_real           : 23856       12.15s   0.581%  ------ ||
|| paw_dij_xc                           :   246       16.60s   0.794%  ------ ||
|| cell_grid_extract_box_real           :  7532       17.46s   0.834%  ------ ||
|| fourier_apply_cell_backward          :  5706       18.33s   0.876%  61.976 ||
|| fourier_apply_cell_forward           :  5337       19.65s   0.939%  54.065 ||
|| aug_nonlocal_mat                     :   235       21.03s   1.005%  ------ ||
|| density_fftbox_deposit_to_cell       : 11840       23.26s   1.112%  ------ ||
|| function_ops_brappd_ketppd           :    44       24.92s   1.191%  ------ ||
|| projectors_func_ovlp_box             :    22       25.11s   1.200%  ------ ||
|| augmentation_density_on_grid         :   185       28.94s   1.383%  ------ ||
|| hamiltonian_energy_components        :     3       35.45s   1.694%  ------ ||
|| integrals_kinetic                    :    21       44.99s   2.150%  ------ ||
|| eigenstates_pdos                     :     1       50.86s   2.431%  ------ ||
|| eigenstates_calculate                :     1       55.93s   2.673%  ------ ||
|| dense_eigensolve                     :   160       71.56s   3.421%  ------ ||
|| xc_energy_potential                  :   184       74.65s   3.568%  ------ ||
|| nlxc_vdw_energy                      :   368       78.44s   3.750%  ------ ||
|| sparse_product                       :  2273       80.16s   3.832%  ------ ||
|| potential_apply_to_ngwf_batch        :   236       88.58s   4.234%  ------ ||
|| projectors_gradient_batch            :    44       90.16s   4.310%  ------ ||
|| basis_dot_function_with_box          : 3.455M      93.85s   4.486%  ------ ||
|| restart_ngwfs_tightbox_output        :    10      111.59s   5.334%  ------ ||
|| properties_calculate                 :     1      112.04s   5.356%  ------ ||
|| integrals_locpot_mat_els_batch       :   236      127.13s   6.077%  ------ ||
|| projectors_grad_precond_batch        :    44      132.84s   6.350%  ------ ||
|| edft_diag_ngwf_ham                   :   159      169.00s   8.078%  ------ ||
|| fourier_apply_box                    : 55952      173.90s   8.312% 976.090 ||
|| integrals_locpot_dbl_grid            :    59      216.53s  10.351%  ------ ||
|| density_fftbox_interpolate_multiply  : 11840      229.31s  10.961%  ------ ||
|| ngwf_gradient_build_batch            :    44      256.07s  12.241%  ------ ||
|| basis_add_function_to_box            : 10.08M     265.13s  12.674%  ------ ||
|| density_batch_interp_deposit         :   740      276.32s  13.208%  ------ ||
|| edft_apply_smearing_operator         :   159      334.88s  16.008%  ------ ||
|| density_batch_row_sums               :   740      354.90s  16.965%  ------ ||
|| ngwf_gradient_batch                  :    44      363.54s  17.377%  ------ ||
|| ngwf_gradient_lnv                    :    11      379.06s  18.119%  ------ ||
|| density_on_dbl_grid                  :   185      642.36s  30.705%  ------ ||
|| hamiltonian_lhxc_calculate           :   180      729.25s  34.859%  ------ ||
|| edft_calculate                       :    11     1268.23s  60.623%  ------ ||
|| ngwf_cg_optimise                     :     1     1953.86s  93.396%  ------ ||
|| total_time                           :     1     2092.01s 100.000%  ------ ||
================================================================================
Overhead of generating timer report: 
- 0 ms averaging over threads,
- 7 ms ensuring consistency across MPI ranks,
- 0 ms printing in order.

Job completed: 09-03-2020 13:28 (-0000)

