 +---------------------------------------------------------------+
 |                                                               |
 |        ####### #     # ####### ####### ####### ######         |
 |        #     # ##    # #          #    #       #     #        |
 |        #     # # #   # #          #    #       #     #        |
 |        #     # #  #  # #####      #    #####   ######         |
 |        #     # #   # # #          #    #       #              |
 |        #     # #    ## #          #    #       #              |
 |        ####### #     # #######    #    ####### #              |
 |                                                               |
 |        Linear-Scaling Ab Initio Total Energy Program          |
 |                                                               |
 |          Release for academic collaborators of ODG            |
 |                                             Version 5.3.2.12  |
 |                                                               |
 +---------------------------------------------------------------+
 |                                                               |
 |  Authors:                                                     |
 |  Jacek Dziedzic, Peter D. Haynes, Nicholas D. M. Hine,        |
 |  Arash. A. Mostofi, Mike C. Payne and Chris-Kriton Skylaris   |
 |                                                               |
 |  Contributors:                                                |
 |  J. Aarons, L. Andrinopoulos, P. W. Avraam, R. A. Bell,       |
 |  A. Bhandari, G. A. Bramley, R. J. Charlton, S. J. Clark,     |
 |  R. J. Clements, G. C. Constantinescu, F. Corsetti,           |
 |  N. Corsini, O. Dieguez, S. M. M. Dubois, K. K. B. Duff,      |
 |  J. M. Escartin, A. Greco, H. Helal, Q. O. Hill, L. P. Lee,   |
 |  J.-H. Li, E. B. Linscott, G. Moynihan, D. D. O`Regan,        |
 |  O. K. Okan, M. J. S. Phipps, C. J. Pickard,                  |
 |  J. C. A. Prentice, M. I. J. Probert, L. E. Ratcliff,         |
 |  M. Robinson, A. Ruiz Serrano, J. S. Spencer, E. W. Tait,     |
 |  G. Teobaldi, D. Turban, V. Vitale, K. A. Wilkinson,          |
 |  C. Weber, J. C. Womack, N. Yeung and T. J. Zuehlsdorff       |
 |                                                               |
 |                                   Copyright (c) 2004-2020     |
 |                                                               |
 |  Please cite:                                                 |
 |  "Introducing ONETEP: Linear-scaling density functional       |
 |   simulations on parallel computers".                         |
 |   C.-K. Skylaris, P. D. Haynes, A. A. Mostofi, M. C. Payne.   |
 |   J. Chem. Phys. 122 084119 (2005).                           |
 |                                                               |
 |          in all publications arising from your use of ONETEP. |
 |                                                               |
 +---------------------------------------------------------------+
 |                                                               |
 |   ONETEP is based on developments described in the following  |
 |   publications:                                               |
 |                                                               |
 |  "Nonorthogonal generalized Wannier function pseudopotential  |
 |   plane-wave method".                                         |
 |   C.-K. Skylaris, A. A. Mostofi, P. D. Haynes, O. Dieguez,    |
 |   M. C. Payne.                                                |
 |   Phys. Rev. B 66 035119 (2002).                              |
 |                                                               |
 |  "Preconditioned iterative minimization for linear-scaling    |
 |   electronic structure calculations".                         |
 |   A. A. Mostofi, P. D. Haynes, C.-K. Skylaris, M. C. Payne.   |
 |   J. Chem. Phys. 119(17), pp.8842-8848 (2003).                |
 |                                                               |
 |  "Total-energy calculations on a real space grid with         |
 |   localized functions and a plane-wave basis".                |
 |   A. A. Mostofi, C.-K. Skylaris, P. D. Haynes, M. C. Payne.   |
 |   Comput. Phys. Commun. 147, pp.788-802 (2002).               |
 |                                                               |
 |  "Accurate kinetic energy evaluation in electronic structure  |
 |   calculations with localized functions on real space grids"  |
 |   C.-K. Skylaris, A. A. Mostofi, P. D. Haynes, C. J. Pickard, |
 |   M. C. Payne.                                                |
 |   Comput. Phys. Commun. 140, pp.315-322 (2001).               |
 |                                                               |
 |  "Accurate ionic forces and geometry optimization in linear-  |
 |   scaling density-functional theory with local orbitals"      |
 |   N. D. M. Hine, M. Robinson, P. D. Haynes, C.-K. Skylaris,   |
 |   M. C. Payne, and A. A. Mostofi.                             |
 |   Phys. Rev. B 83 195102 (2011).                              |
 |                                                               |
 +---------------------------------------------------------------+

Job started: 19-07-2020 22:18 (+0100)
 
Reading parameters from file "40/592nano.dat" ...... done

If your calculation crashes here, before "Checking processes and threads..."
is displayed, then your stack size is insufficient.
If so, use "ulimit -s unlimited" at runtime.
You can disable this check with "check_stack_size F".

Checking processes and threads...
   Determining the default number of threads...
      No default threads set at compilation time: defaulting to 1.
      OpenMP library call suggests 4 threads.
      Hybrid MPI-OpenMP compilation detected.
      Number of MPI processes > 1.
      OMP_NUM_THREADS environment variable present and
      its value matches the one obtained from the OpenMP library call.
      Using this value as default.
      Default threads: 4
      Default applies to threads_max and threads_num_fftboxes.
      Settings in the input file override this default.
   ... done

   Running with 160 MPI processes.
   There are 10 MPI processes running on the same node as the root process.
   Each MPI process is using: 
               1 threads for simulation cell FFTs.
               1 threads for parallel FFT box operations.
               4 threads for loops over batched FFT box operations.
               4 threads in other parallel regions.
... done

Basic input checks...
Resetting ngwf_cg_rotate to TRUE for EDFT calculations
... done

Reading geometry and species blocks from file "40/592nano.dat" ...    
  Number of PPD points along a3 set to 1.  This is 
  the default value, it may have been provided also in the input file.
... done
 Writing xyz coordinates to file "40/592nano.xyz" ... done


--------------------------------------------------------------------------------
---------------------------------- INPUT FILE ----------------------------------
--------------------------------------------------------------------------------

task : singlepoint                                                              
ddec_classical_hirshfeld T                                                      
do_properties : true                                                            
dx_format T                                                                     
edft T                                                                          
output_detail VERBOSE                                                           
write_xyz T                                                                     
dispersion 4                                                                    
xc_functional PBE                                                               
cutoff_energy 830 eV                                                            
paw T                                                                           
geom_disp_tol 0.015 bohr                                                        
geom_energy_tol 1.5E-6 hartree                                                  
geom_force_tol 0.01 "ha/bohr"                                                   
%BLOCK SPECIES_LDOS_GROUPS                                                      
C                                                                               
H                                                                               
Li                                                                              
%ENDBLOCK SPECIES_LDOS_GROUPS                                                   
EDFT_MAXIT 30                                                                   
pdos_max_l = 2                                                                  
dos_smear  0.1 eV                                                               
popn_calculate T                                                                
PDOS_PSEUDOATOMIC T                                                             
PDOS_REDUCE_SWS F                                                               
PDOS_CONSTRUCT_BASIS F                                                          
PDOS_LOWDIN T                                                                   
PDOS_ORTH_ATOM_BLOCKS F                                                         
PDOS_LCAO_OPTIMIZE F                                                            
pdos_optados_output T                                                           
homo_plot 0                                                                     
lumo_plot 0                                                                     
homo_dens_plot -1                                                               
lumo_dens_plot -1                                                               
%BLOCK SPECIES                                                                  
C C 6 4 9.0                                                                     
H H 1 1 9.0                                                                     
Li Li 3 5 9.0                                                                   
%ENDBLOCK SPECIES                                                               
%BLOCK SPECIES_POT                                                              
C "~/pp/paw/c_pbe_abinit.paw"                                                   
H "~/pp/paw/h_pbe_abinit.paw"                                                   
Li "~/pp/paw/li_pbe_abinit.paw"                                                 
%ENDBLOCK SPECIES_POT                                                           
%BLOCK SPECIES_ATOMIC_SET                                                       
C "SOLVE conf=2s2 2p2"                                                          
H "SOLVE conf=1s1"                                                              
Li "SOLVE conf=1s2 2s1 2p0"                                                     
%ENDBLOCK SPECIES_ATOMIC_SET                                                    
%BLOCK LATTICE_CART                                                             
94.486315650000      0.000000000000       0.000000000000                        
0.000000000000       94.486315650000      0.000000000000                        
0.000000000000       0.000000000000       94.486315650000                       
%ENDBLOCK LATTICE_CART                                                          
%BLOCK POSITIONS_ABS                                                            
C 45.530623 50.726406 30.384321                                                 
C 45.437402 50.572647 36.126164                                                 
C 46.878412 53.064617 30.389521                                                 
C 48.138905 50.567515 36.211990                                                 
C 49.587567 48.392064 30.404822                                                 
C 49.490663 48.221142 36.169080                                                 
C 50.946532 50.733311 30.400225                                                 
C 52.204616 48.217100 36.258776                                                 
C 45.517566 55.397040 30.350414                                                 
C 45.443132 55.248152 36.322004                                                 
C 46.864778 57.737034 30.287259                                                 
C 48.150141 55.235332 36.459340                                                 
C 49.586427 53.068150 30.393351                                                 
C 49.498592 52.895337 36.398181                                                 
C 50.931466 55.402469 30.319090                                                 
C 52.197366 52.888920 36.550216                                                 
C 45.402405 50.526243 43.515471                                                 
C 45.442905 50.449321 49.345002                                                 
C 46.768299 52.870109 43.441474                                                 
C 48.143396 50.470551 49.366831                                                 
C 49.447400 48.168049 43.573988                                                 
C 49.504963 48.139908 49.442405                                                 
C 50.807373 50.512532 43.372931                                                 
C 52.202655 48.157075 49.546001                                                 
C 45.421057 55.228780 43.396392                                                 
C 45.410120 55.125861 49.384595                                                 
C 46.772849 57.558244 43.256551                                                 
C 48.111484 55.153461 49.377680                                                 
C 49.467214 52.857951 43.320694                                                 
C 49.477069 52.821575 49.367130                                                 
C 50.811388 55.190573 43.183507                                                 
C 52.172272 52.843165 49.449158                                                 
C 57.688037 48.377330 30.012128                                                 
C 57.558206 48.169832 36.848581                                                 
C 59.053496 50.706293 29.983082                                                 
C 60.277310 48.152721 37.112427                                                 
C 57.562982 48.177357 43.107290                                                 
C 57.563640 48.189636 50.011521                                                 
C 58.913468 50.525507 42.986146                                                 
C 60.290685 48.206565 50.281782                                                 
C 53.646122 50.735014 30.338539                                                 
C 53.548533 50.551441 36.512711                                                 
C 54.997706 53.076290 30.264708                                                 
C 56.237054 50.530315 36.767555                                                 
C 53.507667 50.512432 43.245257                                                 
C 53.531516 50.505991 49.557969                                                 
C 54.851991 52.851036 43.094053                                                 
C 56.225991 50.522029 49.789390                                                 
C 57.660320 43.705289 29.736560                                                 
C 57.566108 43.478036 36.676086                                                 
C 59.016905 46.026931 29.728055                                                 
C 60.280100 43.478539 36.926602                                                 
C 57.551594 43.485525 43.075301                                                 
C 57.603082 43.503321 50.180537                                                 
C 58.912293 45.817082 43.060383                                                 
C 60.314488 43.530660 50.382673                                                 
C 53.641435 46.055168 30.261292                                                 
C 53.543447 45.844334 36.386524                                                 
C 54.989222 48.383329 30.234826                                                 
C 56.229591 45.839270 36.650660                                                 
C 53.515921 45.827619 43.432944                                                 
C 53.559023 45.820897 49.719032                                                 
C 54.862991 48.171782 43.264816                                                 
C 56.243994 45.840668 49.949157                                                 
C 57.689713 57.761471 29.911733                                                 
C 57.604384 57.548215 37.012625                                                 
C 59.044187 60.161485 29.708005                                                 
C 60.331064 57.520797 37.178689                                                 
C 57.558184 57.525461 42.931220                                                 
C 57.541467 57.564636 49.706308                                                 
C 58.911072 59.859598 42.930877                                                 
C 60.285631 57.557666 49.771223                                                 
C 45.479295 64.751255 30.076533                                                 
C 45.440469 64.583742 36.576021                                                 
C 46.857621 67.117352 30.029315                                                 
C 48.112365 64.585420 36.847289                                                 
C 49.530071 62.395064 29.921048                                                 
C 49.482453 62.236855 36.841768                                                 
C 50.879576 64.771186 29.673742                                                 
C 52.182023 62.243529 36.945208                                                 
C 45.438354 64.573554 43.117821                                                 
C 45.327467 64.440286 50.264328                                                 
C 46.815196 66.923268 43.011690                                                 
C 48.013533 64.489922 50.184176                                                 
C 49.469128 62.204885 42.953462                                                 
C 49.403647 62.172911 49.882704                                                 
C 50.835671 64.570855 42.768328                                                 
C 52.102347 62.213573 49.889530                                                 
C 53.600014 60.068181 29.905317                                                 
C 53.543939 59.894904 36.924685                                                 
C 54.944302 62.440197 29.686027                                                 
C 56.267003 59.888901 37.022030                                                 
C 53.516616 59.841068 42.899352                                                 
C 53.475244 59.888306 49.690425                                                 
C 54.885480 62.192922 42.732827                                                 
C 56.183828 59.905739 49.774497                                                 
C 57.713875 53.070713 30.078061                                                 
C 57.567073 52.868484 36.962278                                                 
C 59.064738 55.404963 29.920353                                                 
C 60.295635 52.854576 37.174088                                                 
C 57.553838 52.856493 42.965634                                                 
C 57.546136 52.879915 49.862364                                                 
C 58.906481 55.208659 42.877982                                                 
C 60.272662 52.896448 50.147250                                                 
C 45.495879 60.073324 30.205643                                                 
C 45.449348 59.907535 36.558421                                                 
C 46.837917 62.402985 30.070466                                                 
C 48.141965 59.899746 36.675570                                                 
C 49.559573 57.737554 30.247890                                                 
C 49.497276 57.565523 36.641782                                                 
C 50.901725 60.077229 30.038916                                                 
C 52.196446 57.559201 36.761917                                                 
C 45.425874 59.893732 43.215444                                                 
C 45.375340 59.792336 49.688495                                                 
C 46.784156 62.221873 43.095007                                                 
C 48.068164 59.823842 49.644195                                                 
C 49.470623 57.537626 43.162597                                                 
C 49.441671 57.504226 49.471805                                                 
C 50.819714 59.867921 43.008737                                                 
C 52.146369 57.532653 49.509610                                                 
C 53.642448 55.405464 30.250453                                                 
C 53.542926 55.224066 36.738176                                                 
C 54.987116 57.755516 30.048126                                                 
C 56.240410 55.210642 36.894560                                                 
C 53.506680 55.183145 43.078829                                                 
C 53.504022 55.199737 49.506750                                                 
C 54.854710 57.519905 42.967121                                                 
C 56.201070 55.208075 49.675587                                                 
H 27.301004 41.347537 29.486708                                                 
H 28.188227 39.478982 36.701110                                                 
H 27.128380 41.265822 42.621300                                                 
H 28.349106 39.214517 50.660978                                                 
H 41.894300 30.266947 29.515613                                                 
C 42.937298 32.051572 29.559102                                                 
H 44.377772 30.084070 36.779817                                                 
H 41.662812 30.066020 42.907792                                                 
C 42.702653 31.853405 42.949091                                                 
H 44.550156 29.976435 49.658907                                                 
H 29.650129 37.248405 29.465020                                                 
C 30.689464 39.032813 29.525193                                                 
H 32.244968 37.136451 36.467492                                                 
H 33.761516 34.859635 29.505250                                                 
C 34.783293 36.654444 29.561292                                                 
H 29.409130 37.217143 43.326350                                                 
C 30.475052 38.985519 43.200564                                                 
H 32.446961 36.920034 50.821290                                                 
H 33.495208 34.784154 43.966877                                                 
C 34.538442 36.546034 43.674643                                                 
H 37.853989 32.568785 29.369309                                                 
C 38.866060 34.371940 29.416551                                                 
H 40.328932 32.424072 36.995837                                                 
H 37.600817 32.382449 43.208664                                                 
C 38.614868 34.182472 43.113926                                                 
H 40.482874 32.305320 50.243688                                                 
H 46.564975 30.271139 29.889387                                                 
H 46.347094 30.069077 43.135338                                                 
H 25.811019 48.186887 36.293379                                                 
C 27.874418 48.212570 36.406401                                                 
H 25.854389 47.955331 50.131867                                                 
C 27.920270 47.978744 50.092582                                                 
H 25.826909 43.536578 36.614550                                                 
H 27.305641 46.062527 29.289245                                                 
C 27.894818 43.531785 36.671751                                                 
H 25.934178 43.233663 50.248779                                                 
H 27.143535 45.968550 42.643758                                                 
C 28.001010 43.263667 50.254961                                                 
H 25.855176 57.690385 36.597223                                                 
H 27.303713 60.025127 29.055928                                                 
C 27.921597 57.665326 36.625725                                                 
H 25.808305 57.350132 49.645436                                                 
H 27.215090 59.919106 43.451462                                                 
C 27.874577 57.356228 49.702152                                                 
H 25.787372 52.943053 36.260237                                                 
H 27.323725 55.333097 29.018140                                                 
C 27.850473 52.930842 36.314550                                                 
H 25.817090 52.647054 49.948270                                                 
H 27.212952 55.265734 43.734092                                                 
C 27.885432 52.654210 49.924979                                                 
C 29.365782 41.343042 29.543358                                                 
C 29.211405 41.276781 36.718715                                                 
C 30.646477 43.699899 29.583452                                                 
C 31.877512 41.224371 36.774459                                                 
C 33.377088 38.943566 29.578230                                                 
C 33.271210 38.930729 36.714439                                                 
C 34.742511 41.345968 29.717582                                                 
C 35.941527 38.885092 36.891055                                                 
C 29.370274 46.051680 29.392391                                                 
C 29.176494 45.878597 36.679812                                                 
C 30.683487 48.362874 29.273122                                                 
C 31.901990 45.874266 36.798641                                                 
C 33.393097 43.686282 29.723564                                                 
C 33.246444 43.552856 36.845969                                                 
C 34.748237 46.033280 29.791311                                                 
C 35.954940 43.561055 36.873271                                                 
C 29.184478 41.259587 42.813532                                                 
C 29.353301 41.014802 50.512324                                                 
C 30.487973 43.605937 42.736105                                                 
C 32.040855 40.985077 50.512107                                                 
C 33.141125 38.876905 43.334375                                                 
C 33.454796 38.718645 50.658163                                                 
C 34.530785 41.226449 43.136350                                                 
C 36.107080 38.711796 50.630656                                                 
C 29.209386 45.955656 42.740849                                                 
C 29.240386 45.651284 50.147812                                                 
C 30.512769 48.278551 42.800460                                                 
C 31.979590 45.663682 50.037889                                                 
C 33.211348 43.566514 42.935007                                                 
C 33.359363 43.358716 50.191460                                                 
C 34.577806 45.903384 42.985390                                                 
C 36.064276 43.384477 50.041638                                                 
C 41.509605 39.034180 29.752436                                                 
C 41.359298 38.869329 36.894983                                                 
C 42.848954 41.374143 30.047802                                                 
C 44.053190 38.862079 36.741104                                                 
C 41.313428 38.839558 43.127141                                                 
C 41.504143 38.758723 50.062406                                                 
C 42.660408 41.169162 43.320507                                                 
C 44.178970 38.763713 49.786011                                                 
C 37.458805 41.350393 29.816892                                                 
C 37.311800 41.242598 36.925946                                                 
C 38.791323 43.695830 30.032754                                                 
C 40.008075 41.211491 36.841345                                                 
C 37.252399 41.201279 43.211743                                                 
C 37.443299 41.085284 50.257178                                                 
C 38.608665 43.533492 43.274921                                                 
C 40.127816 41.076184 49.983643                                                 
C 41.524728 34.347922 29.453179                                                 
C 41.359243 34.214833 36.964967                                                 
C 42.887328 36.701596 29.554113                                                 
C 44.037581 34.160739 36.816615                                                 
C 41.307924 34.139358 42.925950                                                 
C 41.512198 34.096775 50.147074                                                 
C 42.685997 36.490678 43.000575                                                 
C 44.171974 34.052632 49.816318                                                 
C 37.466369 36.626099 29.486520                                                 
C 37.312053 36.569592 36.799752                                                 
C 38.826823 39.010057 29.669648                                                 
C 39.996916 36.489889 36.959510                                                 
C 37.235896 36.451182 43.308032                                                 
C 37.494537 36.432139 50.457184                                                 
C 38.606361 38.839090 43.200817                                                 
C 40.161004 36.379856 50.381309                                                 
C 41.481558 48.381461 30.277566                                                 
C 41.352140 48.225636 36.328728                                                 
C 42.828347 50.722032 30.333193                                                 
C 44.066332 48.223827 36.124422                                                 
C 41.315216 48.198553 43.460060                                                 
C 41.408047 48.080728 49.424092                                                 
C 42.684355 50.536073 43.446336                                                 
C 44.108043 48.102053 49.390143                                                 
C 29.384685 55.347437 29.186554                                                 
C 29.167503 55.310520 36.477492                                                 
C 30.659932 57.694316 29.293858                                                 
C 31.917491 55.301095 36.568519                                                 
C 33.418664 53.046330 29.522659                                                 
C 33.268039 52.928197 36.534961                                                 
C 34.738644 55.382130 29.716493                                                 
C 35.969446 52.924320 36.577866                                                 
C 29.278351 55.257153 43.610995                                                 
C 29.162588 54.982471 49.748692                                                 
C 30.573487 57.582937 43.444317                                                 
C 31.903751 55.021983 49.705723                                                 
C 33.276986 52.920647 43.323312                                                 
C 33.271452 52.687553 49.692951                                                 
C 34.620775 55.245215 43.281064                                                 
C 35.972232 52.711883 49.553174                                                 
C 37.435734 50.714321 30.036900                                                 
C 37.317157 50.578209 36.574353                                                 
C 38.772967 53.053518 30.136676                                                 
C 39.999561 50.577807 36.405711                                                 
C 37.296269 50.562226 43.175394                                                 
C 37.340318 50.386970 49.498334                                                 
C 38.646703 52.897936 43.229915                                                 
C 40.040144 50.407906 49.402385                                                 
C 41.490838 43.704999 30.154624                                                 
C 41.359494 43.544230 36.622792                                                 
C 42.833602 46.042550 30.287507                                                 
C 44.063720 43.536824 36.454035                                                 
C 41.304860 43.509745 43.429980                                                 
C 41.449061 43.415548 49.666528                                                 
C 42.654309 45.834772 43.635842                                                 
C 44.143047 43.430305 49.551995                                                 
C 29.404333 50.702137 29.252439                                                 
C 29.134651 50.554064 36.399160                                                 
C 30.696249 53.040443 29.154225                                                 
C 31.903752 50.560558 36.521721                                                 
C 33.415786 48.365862 29.590629                                                 
C 33.260089 48.228829 36.719457                                                 
C 34.745542 50.709326 29.732430                                                 
C 35.962112 48.232147 36.702125                                                 
C 29.237997 50.594085 43.249125                                                 
C 29.185358 50.345334 50.021505                                                 
C 30.552274 52.927313 43.579254                                                 
C 31.937648 50.361685 49.865064                                                 
C 33.251775 48.244279 42.940830                                                 
C 33.308549 48.030948 49.841759                                                 
C 34.600840 50.573012 43.126926                                                 
C 36.008698 48.042737 49.646281                                                 
C 37.443190 46.030291 30.020428                                                 
C 37.300246 45.900837 36.754620                                                 
C 38.790823 48.376728 30.131657                                                 
C 40.007585 45.893709 36.571919                                                 
C 37.271496 45.879895 43.190320                                                 
C 37.377594 45.723407 49.713198                                                 
C 38.628309 48.211431 43.255436                                                 
C 40.077291 45.739017 49.575470                                                 
C 45.525828 32.053804 29.773224                                                 
C 45.419914 31.863075 36.640777                                                 
C 46.926642 34.351185 29.901988                                                 
C 47.997067 31.850720 36.290495                                                 
H 49.022542 30.060112 36.168976                                                 
H 50.595556 32.586792 30.127525                                                 
C 45.562173 36.698139 29.853910                                                 
C 45.396355 36.506103 36.664731                                                 
C 46.887401 39.033420 30.110485                                                 
C 48.064011 36.493647 36.323007                                                 
C 49.565796 34.378299 30.078234                                                 
C 49.405938 34.136620 36.108965                                                 
C 50.938256 36.645746 30.183329                                                 
C 52.080168 34.159272 35.935039                                                 
C 45.308788 31.856248 43.081606                                                 
C 45.583009 31.766670 49.668899                                                 
C 46.702658 34.138628 43.195569                                                 
C 48.226948 31.770966 49.606967                                                 
H 49.263143 29.983516 49.555809                                                 
H 50.400764 32.384049 43.469119                                                 
C 45.363244 36.487171 43.138982                                                 
C 45.544650 36.421523 49.721979                                                 
C 46.704539 38.827087 43.288534                                                 
C 48.237187 36.431898 49.674848                                                 
C 49.372254 34.176424 43.380582                                                 
C 49.638103 34.070579 49.696804                                                 
C 50.736620 36.443742 43.454340                                                 
C 52.283715 34.125868 49.939190                                                 
H 53.080020 32.356445 35.802019                                                 
H 53.328266 32.340808 49.956713                                                 
C 57.651771 39.046936 29.713943                                                 
C 57.591472 38.757141 36.182271                                                 
C 58.992716 41.339453 29.418426                                                 
C 60.259517 38.827547 36.552366                                                 
C 57.503221 38.817484 43.039966                                                 
C 57.651969 38.795995 50.381022                                                 
C 58.907157 41.119859 42.933700                                                 
C 60.332424 38.894358 50.380519                                                 
C 45.534822 46.049849 30.350015                                                 
C 45.421992 45.874429 36.208482                                                 
C 46.887380 48.388627 30.393954                                                 
C 48.138821 45.866907 36.229895                                                 
C 49.580996 43.720779 30.357682                                                 
C 49.469911 43.519600 36.334917                                                 
C 50.935811 46.053034 30.373385                                                 
C 52.180777 43.502282 36.365145                                                 
C 45.379207 45.831471 43.655259                                                 
C 45.474966 45.775161 49.447345                                                 
C 46.736295 48.171561 43.578281                                                 
C 48.172767 45.792865 49.470109                                                 
C 49.420630 43.475358 43.527901                                                 
C 49.535727 43.460864 49.583376                                                 
C 50.793562 45.820935 43.634909                                                 
C 52.225454 43.475834 49.738609                                                 
C 53.635931 41.376779 30.170434                                                 
C 53.515042 41.153972 36.310426                                                 
C 54.979547 43.709830 30.076378                                                 
C 56.231269 41.148112 36.366760                                                 
C 53.472092 41.160045 43.275629                                                 
C 53.575078 41.141757 49.996666                                                 
C 54.849465 43.485234 43.262699                                                 
C 56.284089 41.162888 50.210526                                                 
H 57.214855 34.685193 35.702045                                                 
H 58.687626 37.257212 29.640334                                                 
H 57.342789 34.703654 50.348391                                                 
H 58.524229 37.018366 43.000569                                                 
C 45.533985 41.376568 30.177252                                                 
C 45.415790 41.195031 36.535979                                                 
C 46.882860 43.713068 30.327117                                                 
C 48.104566 41.184264 36.414332                                                 
C 49.566013 39.023750 30.250393                                                 
C 49.444465 38.834648 36.319374                                                 
C 50.933751 41.371673 30.314657                                                 
C 52.142579 38.810242 36.208050                                                 
C 45.354731 41.160790 43.375314                                                 
C 45.511571 41.100524 49.610141                                                 
C 46.722648 43.486575 43.537762                                                 
C 48.206480 41.113260 49.610571                                                 
C 49.392950 38.820971 43.359720                                                 
C 49.569812 38.784261 49.732787                                                 
C 50.765995 41.143055 43.384541                                                 
C 52.245675 38.789771 49.979148                                                 
C 53.618810 36.707017 30.043530                                                 
C 53.505295 36.424796 35.929717                                                 
C 55.007999 38.989624 30.027066                                                 
C 56.186125 36.470248 35.870569                                                 
C 53.431763 36.492751 43.190983                                                 
C 53.624526 36.407752 50.149850                                                 
C 54.826709 38.797487 43.156074                                                 
C 56.295176 36.486649 50.337421                                                 
H 61.309348 37.044795 36.529435                                                 
H 62.700071 39.606103 29.186994                                                 
H 61.382532 37.113960 50.383544                                                 
H 62.595407 39.378412 42.716669                                                 
H 28.236022 61.712478 37.047325                                                 
H 28.148873 61.435157 49.781582                                                 
C 29.364455 60.045010 29.197913                                                 
C 29.256006 59.922239 36.870995                                                 
C 30.657792 62.341546 29.305580                                                 
C 31.937601 59.974349 36.926070                                                 
C 33.377457 57.718444 29.559099                                                 
C 33.281733 57.616822 36.736826                                                 
C 34.704788 60.058733 29.629101                                                 
C 35.987013 57.607326 36.676114                                                 
H 29.618530 64.124850 29.220897                                                 
H 32.302873 64.064294 36.931701                                                 
C 33.344290 62.435255 29.442913                                                 
C 33.327611 62.271107 36.789167                                                 
C 34.716934 64.735273 29.471478                                                 
C 35.998947 62.308769 36.816563                                                 
C 29.282131 59.936516 43.372447                                                 
C 29.184126 59.646648 49.782315                                                 
C 30.567097 62.193362 43.207099                                                 
C 31.877889 59.731637 49.913579                                                 
C 33.272558 57.585382 43.300657                                                 
C 33.240461 57.359439 49.778330                                                 
C 34.606238 59.911087 43.159110                                                 
C 35.953179 57.378415 49.791421                                                 
H 29.534893 63.986996 43.165271                                                 
H 32.198664 63.789477 50.365113                                                 
C 33.253390 62.270502 43.127062                                                 
C 33.237928 62.004813 50.242499                                                 
C 34.619178 64.578831 43.192190                                                 
C 35.903270 62.046351 50.425524                                                 
C 41.457519 57.733312 30.197490                                                 
C 41.387582 57.588802 36.469436                                                 
C 42.797974 60.073434 30.164713                                                 
C 44.088873 57.584418 36.445236                                                 
C 41.365326 57.575837 43.263872                                                 
C 41.344440 57.421616 49.605694                                                 
C 42.725116 59.905653 43.258105                                                 
C 44.042845 57.449868 49.525091                                                 
C 37.419604 60.071660 29.824103                                                 
C 37.348043 59.928259 36.672207                                                 
C 38.763740 62.415645 29.789813                                                 
C 40.041325 59.924492 36.508917                                                 
C 37.322666 59.913817 43.165314                                                 
C 37.285208 59.698336 50.039198                                                 
C 38.670773 62.253973 43.237147                                                 
C 39.979792 59.738401 49.898119                                                 
C 41.472273 53.056864 30.286368                                                 
C 41.360189 52.916130 36.309026                                                 
C 42.816766 55.396327 30.304116                                                 
C 44.076761 52.915439 36.118930                                                 
C 41.341953 52.888781 43.346147                                                 
C 41.375670 52.753919 49.379692                                                 
C 42.706330 55.238003 43.360062                                                 
C 44.076637 52.779037 49.346189                                                 
C 37.421763 55.393947 30.001442                                                 
C 37.323521 55.257037 36.577575                                                 
C 38.763806 57.731756 30.043433                                                 
C 40.024488 55.250593 36.470459                                                 
C 37.317833 55.240752 43.207335                                                 
C 37.308983 55.053612 49.573221                                                 
C 38.669673 57.574174 43.209892                                                 
C 40.010117 55.078132 49.493522                                                 
C 41.390899 67.123967 30.008063                                                 
C 41.434276 66.886267 36.179698                                                 
C 42.805985 69.419495 30.127052                                                 
C 44.090740 66.920798 36.419774                                                 
C 41.367442 66.970980 43.353091                                                 
C 41.271958 66.693827 50.565618                                                 
C 42.797464 69.251604 43.281211                                                 
C 43.931073 66.756777 50.619945                                                 
H 37.708323 68.868276 29.719625                                                 
H 40.407168 68.680636 36.079251                                                 
H 37.665191 68.737176 43.337177                                                 
H 40.224827 68.467854 50.758076                                                 
C 41.441881 62.408036 30.010967                                                 
C 41.414676 62.248147 36.364764                                                 
C 42.784173 64.755689 30.056118                                                 
C 44.097700 62.244926 36.485796                                                 
C 41.378970 62.241849 43.294850                                                 
C 41.315551 62.071155 50.093389                                                 
C 42.748706 64.592722 43.288297                                                 
C 43.993782 62.100655 49.992723                                                 
H 33.677427 66.519987 29.400479                                                 
H 33.570952 66.360955 43.243370                                                 
C 37.390822 64.801124 29.602335                                                 
C 37.375242 64.585863 36.489563                                                 
C 38.744998 67.077909 29.751925                                                 
C 40.056466 64.615870 36.155887                                                 
C 37.288103 64.652267 43.259725                                                 
C 37.268255 64.331134 50.493708                                                 
C 38.684865 66.939175 43.335501                                                 
C 39.927529 64.408004 50.393724                                                 
C 61.681593 41.404354 29.286840                                                 
C 61.547913 41.105582 36.940291                                                 
C 63.000858 43.669667 29.319383                                                 
H 63.593494 41.091608 37.222858                                                 
C 61.737300 46.023411 29.482552                                                 
C 61.565662 45.825308 37.076929                                                 
C 63.059361 48.358864 29.558241                                                 
H 63.618553 45.820756 37.314025                                                 
H 65.065599 43.668022 29.223149                                                 
C 61.577040 41.175375 42.800853                                                 
C 61.617357 41.180516 50.395172                                                 
C 62.921330 43.457967 42.858984                                                 
H 63.686169 41.205537 50.430856                                                 
C 61.656464 45.828366 42.936130                                                 
C 61.603476 45.885862 50.223472                                                 
C 62.955288 48.174085 42.962237                                                 
H 63.669213 45.899669 50.357688                                                 
H 64.986619 43.447427 42.768915                                                 
C 61.850421 55.402313 29.813348                                                 
C 61.607015 55.162765 37.141652                                                 
C 63.104852 57.767562 29.796447                                                 
H 63.671172 55.128057 37.287429                                                 
H 65.189479 52.985099 29.698485                                                 
C 61.633701 55.204068 42.830915                                                 
C 61.575077 55.214635 49.985900                                                 
C 62.911195 57.557919 42.932745                                                 
H 63.642401 55.216824 50.052774                                                 
H 65.016443 52.876538 42.859812                                                 
C 61.801387 50.698876 29.726188                                                 
C 61.578285 50.498553 36.978603                                                 
C 63.122955 53.032164 29.783119                                                 
H 65.120955 48.342426 29.414067                                                 
C 61.670979 50.527846 42.890022                                                 
C 61.569971 50.553949 50.127231                                                 
C 62.946684 52.866522 42.879880                                                 
H 65.020627 48.164772 42.902510                                                 
H 41.773300 71.210576 30.175086                                                 
H 44.432655 70.995740 36.454326                                                 
H 41.779476 71.049443 43.349112                                                 
H 44.253391 70.844784 50.822089                                                 
C 45.453485 69.409453 30.136174                                                 
C 45.476094 69.215595 36.569469                                                 
H 46.490225 71.196380 30.197254                                                 
C 48.063883 69.227216 36.851871                                                 
C 49.532275 67.056892 29.826507                                                 
C 49.470764 66.939169 36.987649                                                 
H 50.568882 68.845592 29.780365                                                 
C 52.152106 66.906352 37.035749                                                 
H 49.095003 71.015923 36.954169                                                 
C 45.425863 69.222889 43.095680                                                 
C 45.316203 69.076742 50.674416                                                 
H 46.471773 71.003069 43.027611                                                 
C 47.925641 69.117601 50.544402                                                 
C 49.485742 66.859132 42.868663                                                 
C 49.357945 66.852565 50.383676                                                 
H 50.518857 68.645069 42.721061                                                 
C 52.040255 66.854196 50.320849                                                 
H 48.941398 70.918548 50.592692                                                 
H 57.256406 66.369459 37.080172                                                 
H 57.154225 66.370913 50.459214                                                 
H 53.170359 68.705546 37.092882                                                 
H 53.037232 68.660244 50.457861                                                 
C 57.615145 62.435506 29.855877                                                 
C 57.626048 62.273632 37.126737                                                 
H 58.605769 64.251132 29.775810                                                 
C 60.311975 62.174426 37.300801                                                 
C 57.544618 62.147119 42.825595                                                 
C 57.552574 62.296624 50.022856                                                 
H 58.579943 63.935363 42.676620                                                 
C 60.238085 62.221330 49.879078                                                 
C 53.559343 64.713495 29.761422                                                 
C 53.557071 64.629613 37.046271                                                 
C 56.237866 64.570185 37.031446                                                 
C 53.513246 64.504763 42.891543                                                 
C 53.457642 64.600560 50.197431                                                 
C 56.142555 64.581730 50.249000                                                 
C 61.738565 60.106390 29.660673                                                 
C 61.611975 59.870718 37.406566                                                 
H 62.763971 61.898158 29.517025                                                 
H 63.668812 59.854485 37.609474                                                 
H 65.167882 57.785053 29.856068                                                 
H 61.354523 63.953385 37.452740                                                 
C 61.592426 59.800506 42.977310                                                 
C 61.563534 59.919268 49.732517                                                 
H 62.607765 61.599996 42.999505                                                 
H 63.626500 59.923491 49.637482                                                 
H 64.980192 57.550849 42.925326                                                 
H 61.272651 64.010121 49.895675                                                 
H 63.635172 50.565671 50.256149                                                 
H 36.467862 34.640169 50.584397                                                 
H 36.225820 66.107754 50.687840                                                 
H 27.170204 50.604848 43.308620                                                 
H 54.544269 66.283767 42.635057                                                 
H 63.636714 50.487160 37.202158                                                 
H 54.475972 34.707116 43.275894                                                 
H 36.256113 34.793461 36.551079                                                 
H 36.355343 66.388141 36.503085                                                 
H 54.584603 66.508514 29.674345                                                 
H 27.340084 50.704664 29.116531                                                 
H 54.647889 34.916777 29.971354                                                 
Li 32.039103 41.391101 26.320813                                                
Li 30.762151 47.681978 33.144857                                                
Li 59.049049 59.789740 53.104910                                                
Li 35.990973 38.681783 33.069770                                                
Li 60.580057 57.719457 26.472897                                                
Li 42.467948 36.289603 33.411319                                                
Li 30.446972 57.281329 53.076080                                                
Li 35.805920 62.363043 46.612185                                                
Li 46.988410 34.000525 52.995125                                                
Li 30.270636 48.024258 46.603141                                                
Li 52.151516 39.043796 26.862939                                                
Li 35.800242 38.966643 46.773782                                                
Li 44.118590 67.207361 26.774563                                                
Li 35.900858 62.770777 33.016454                                                
Li 30.469115 53.151346 33.004447                                                
Li 40.362024 36.156727 46.519413                                                
Li 55.272170 38.554986 46.853456                                                
Li 60.578274 48.212395 46.431487                                                
Li 44.320655 67.033175 46.682939                                                
Li 50.637793 65.006221 46.660732                                                
Li 50.681463 64.981057 33.522434                                                
Li 40.037312 64.852208 39.924711                                                
Li 60.420849 53.336652 46.323038                                                
Li 50.677643 36.031899 39.594158                                                
Li 30.705500 42.339933 46.693761                                                
Li 60.847463 47.980979 33.229369                                                
Li 55.049279 62.268909 33.572763                                                
Li 60.744619 53.102158 33.344338                                                
Li 60.467925 43.022435 46.440783                                                
Li 30.219245 52.994687 39.821016                                                
Li 55.552410 63.117708 46.483023                                                
Li 55.212385 38.263440 39.443501                                                
Li 31.454332 60.005257 32.938593                                                
Li 44.195483 52.982463 39.995672                                                
Li 59.426008 41.374837 33.235272                                                
Li 51.234857 46.899954 39.858659                                                
Li 34.579621 36.563391 39.830418                                                
Li 43.489894 46.710136 39.872139                                                
Li 59.835658 59.909270 33.646356                                                
Li 50.491920 53.491440 39.993600                                                
%ENDBLOCK POSITIONS_ABS                                                         

--------------------------------------------------------------------------------
-------------------------------- END INPUT FILE --------------------------------
--------------------------------------------------------------------------------


 
<<<<<<<<<<<<<<<<<<<<<<<<<<<<<<<<< Full system >>>>>>>>>>>>>>>>>>>>>>>>>>>>>>>>>>
<<<<<<<<<<<<<<<<<<<<<<<<<<< PAW Dataset information >>>>>>>>>>>>>>>>>>>>>>>>>>>
File: ~/pp/paw/c_pbe_abinit.paw; rc = 1.25 bohr; shape type =  3; rshape = 1.25 bohr;
  Atomic number:  6;  ionic charge:  4.000000
    Partial Wave 1: l = 0
    Partial Wave 2: l = 0
    Partial Wave 3: l = 1
    Partial Wave 4: l = 1
  Core charge supplied for Nonlinear Core Corrections
File: ~/pp/paw/h_pbe_abinit.paw; rc = 0.90 bohr; shape type =  3; rshape = 0.90 bohr;
  Atomic number:  1;  ionic charge:  1.000000
    Partial Wave 1: l = 0
    Partial Wave 2: l = 0
File: ~/pp/paw/li_pbe_abinit.paw; rc = 1.42 bohr; shape type =  3; rshape = 1.42 bohr;
  Atomic number:  3;  ionic charge:  3.000000
    Partial Wave 1: l = 0
    Partial Wave 2: l = 0
    Partial Wave 3: l = 0
    Partial Wave 4: l = 1
    Partial Wave 5: l = 1
<<<<<<<<<<<<<<<<<<<<<<<<<<<<<<<<<<<<<<< >>>>>>>>>>>>>>>>>>>>>>>>>>>>>>>>>>>>>>>

-------------------------- Atom counting information ---------------------------
Symbol    Natoms    Nngwfs    Nprojs
  C        484      1936      3872
  H        108       108       216
  Li        40       200       360
.......   ......    ......    ......
Totals:    632      2244      4448
--------------------------------------------------------------------------------

=============================== PSINC grid sizes ===============================
                      Simulation cell:  189 x 189 x 189
                              FFT-box:  117 x 117 x 117
                                  PPD:    7 x   7 x   1
Grid space d1=  0.499927596032a0 (KE cutoff=  30.39413Eh = 827.06648eV)
Grid space d2=  0.499927596032a0 (KE cutoff=  30.39413Eh = 827.06648eV)
Grid space d3=  0.499927596032a0 (KE cutoff=  30.39413Eh = 827.06648eV)
================================================================================
  
WARNING in cell_grid_distribute:
Average of less than one 23-slab per node, so workload cannot be
equally balanced between nodes.

********************* Fourier parallelisation information **********************
       Coarse grid (whole simulation cell) dimensions:    189   189   189
          Real-space ('12') slabs/node (min max mean):      1     2     1
         Recip-space ('23') slabs/node (min max mean):      0     1     0
********************************************************************************

********************* Fourier parallelisation information **********************
       Double grid (whole simulation cell) dimensions:    378   378   378
          Real-space ('12') slabs/node (min max mean):      2     3     2
         Recip-space ('23') slabs/node (min max mean):      1     2     1
********************************************************************************

Atom SCF Calculation for C  : Z (AE atom) =   6 : Z (PS atom) =   4
Config String: 2s2 2p2
Orbitals (num,occ):  2     2.00 2.00
Orbitals   (num,l):  2        0    1
Real-space Grid (nr,dr,rmax): 1377    0.0065406977    9.0000000000
Spherical Bessel Basis (nsws,lmax,cutoff):   37    2  183.0099912382
Confining potential (l,width,scale):  0    3.0000000000  100.0000000000
Confining potential (l,width,scale):  1    3.0000000000  100.0000000000
  1         -5.4350126632   -1.2715272878    4.5135247139   -1.5681949477
  2         -5.3876836850   -1.3562195125    4.4235426751   -1.5380057521
  3         -5.3928844498   -1.3758175853    4.4021699684   -1.5318377811
  4         -5.3988962903   -1.3800385428    4.3975423583   -1.5307324410
  5         -5.4018428823   -1.3823489590    4.3950111904   -1.5301555648
  6         -5.4033571720   -1.3835805046    4.3936635548   -1.5298576834
  7         -5.4041480647   -1.3842324820    4.3929512000   -1.5297032953
  8         -5.4045641108   -1.3845769138    4.3925755232   -1.5296229456
  9         -5.4047838258   -1.3847587737    4.3923775340   -1.5295810042
 10         -5.4049001347   -1.3848548089    4.3922731819   -1.5295590658
 11         -5.4049618018   -1.3849055476    4.3922181562   -1.5295475724
 12         -5.4049945351   -1.3849323732    4.3921891206   -1.5295415432
 13         -5.4050119258   -1.3849465673    4.3921737867   -1.5295383767
 14         -5.4050211723   -1.3849540841    4.3921656816   -1.5295367119
 15         -5.4050260920   -1.3849580684    4.3921613935   -1.5295358358
 16         -5.4050287113   -1.3849601822    4.3921591228   -1.5295353742
 17         -5.4050301068   -1.3849613045    4.3921579192   -1.5295351307
 18         -5.4050308507   -1.3849619010    4.3921572806   -1.5295350022
 19         -5.4050312476   -1.3849622183    4.3921569415   -1.5295349343
 20         -5.4050314594   -1.3849623873    4.3921567612   -1.5295348984
 21         -5.4050315725   -1.3849624773    4.3921566653   -1.5295348794
 22         -5.4050316330   -1.3849625253    4.3921566143   -1.5295348693
Atom SCF converged after  22 iterations to a total energy of     -5.40503163

Atom SCF Calculation for H  : Z (AE atom) =   1 : Z (PS atom) =   1
Config String: 1s1
Orbitals (num,occ):  1     1.00
Orbitals   (num,l):  1        0
Real-space Grid (nr,dr,rmax): 1377    0.0065406977    9.0000000000
Spherical Bessel Basis (nsws,lmax,cutoff):   37    1  183.0099912382
Confining potential (l,width,scale):  0    3.0000000000  100.0000000000
  1         -0.3605254152   -0.2399954029    0.2820952946   -0.2424203210
  2         -0.4156854077   -0.2398249290    0.2871789324   -0.2464796203
  3         -0.4412552402   -0.2379720642    0.2899127187   -0.2499011370
  4         -0.4517265951   -0.2371980236    0.2908966173   -0.2514141636
  5         -0.4557775773   -0.2369735141    0.2911607883   -0.2519713623
  6         -0.4573363459   -0.2369240355    0.2912108681   -0.2521663171
  7         -0.4579443228   -0.2369187864    0.2912112833   -0.2522344454
  8         -0.4581858602   -0.2369215483    0.2912049187   -0.2522587615
  9         -0.4582834939   -0.2369242589    0.2912002081   -0.2522677042
 10         -0.4583235236   -0.2369258837    0.2911975892   -0.2522710965
 11         -0.4583401154   -0.2369267223    0.2911962825   -0.2522724192
 12         -0.4583470483   -0.2369271266    0.2911956643   -0.2522729467
 13         -0.4583499624   -0.2369273145    0.2911953803   -0.2522731607
 14         -0.4583511926   -0.2369274000    0.2911952521   -0.2522732486
 15         -0.4583517136   -0.2369274385    0.2911951948   -0.2522732850
 16         -0.4583519349   -0.2369274556    0.2911951693   -0.2522733002
 17         -0.4583520290   -0.2369274632    0.2911951581   -0.2522733066
Atom SCF converged after  17 iterations to a total energy of     -0.45835203

Atom SCF Calculation for Li : Z (AE atom) =   3 : Z (PS atom) =   3
Config String: 1s2 2s1 2p0
Orbitals (num,occ):  3     2.00 1.00 0.00
Orbitals   (num,l):  3        0    0    1
Real-space Grid (nr,dr,rmax): 1377    0.0065406977    9.0000000000
Spherical Bessel Basis (nsws,lmax,cutoff):   37    2  183.0099912382
Confining potential (l,width,scale):  0    3.0000000000  100.0000000000
Confining potential (l,width,scale):  1    3.0000000000  100.0000000000
  1         -6.0640888065   -4.6655401716    2.5388576516   -0.9989538799
  2         -6.9627542978   -4.0954079129    2.9808988108   -1.1965571426
  3         -7.2692687601   -3.8889996707    3.2029735703   -1.3193883705
  4         -7.3784440298   -3.8322099748    3.2868571989   -1.3711018151
  5         -7.4170278248   -3.8191968371    3.3144974220   -1.3911175539
  6         -7.4303549880   -3.8172386945    3.3228486489   -1.3986896266
  7         -7.4348052089   -3.8175483495    3.3251259310   -1.4015352495
  8         -7.4362242328   -3.8180607346    3.3256233205   -1.4026016384
  9         -7.4366459715   -3.8184145665    3.3256561549   -1.4029998726
 10         -7.4367560626   -3.8186169740    3.3256001574   -1.4031477379
 11         -7.4367765260   -3.8187239825    3.3255481763   -1.4032021548
 12         -7.4367751741   -3.8187782620    3.3255144587   -1.4032219192
 13         -7.4367707398   -3.8188051288    3.3254952336   -1.4032289600
 14         -7.4367680349   -3.8188156035    3.3254870176   -1.4032309087
 15         -7.4367661982   -3.8188217406    3.3254819951   -1.4032318132
 16         -7.4367650112   -3.8188253257    3.3254789583   -1.4032322224
 17         -7.4367642682   -3.8188274151    3.3254771375   -1.4032324006
 18         -7.4367638134   -3.8188286307    3.3254760529   -1.4032324736
 19         -7.4367635392   -3.8188293370    3.3254754103   -1.4032325004
 20         -7.4367633760   -3.8188297469    3.3254750310   -1.4032325080
 21         -7.4367632796   -3.8188299846    3.3254748079   -1.4032325082
Atom SCF converged after  21 iterations to a total energy of     -7.43676328

Determining parallel strategy ...
... using space-filling curve
... NGWF load balancing: max     16;  min     12;  average     14
... Projector load balancing: max     32;  min     24;  average     28
... done
Calculating Ewald energy ...
              Ewald: real-space energy =   36816.034010
        Ewald: reciprocal-space energy =   36646.482546
         Ewald: (sum_charge)**2 Energy =    2887.641290
         Ewald: (sum_charge**2) Energy =     254.604576
                          Ewald Energy =   70320.270690
======================= Empirical dispersion information =======================
Model : Grimme D2
Dispersion Correction Energy: -0.23992559E+01 Hartree
================================================================================
Basis initialisation ...... NGWF spheres initialised
... Projector spheres initialised
... NGWF tight boxes initialised
... Projector tight boxes initialised
... Tight-boxes gathered
... NGWF basis size (local,global):     282774  45261580
... PAW projector initialisation
... done

============================= Charge Augmentation ==============================
                           Aug box size:   13 x  13 x  13
================================================================================

========================== Sparse matrix information ===========================
                        Overlap matrix filling:  37.24%
                        Density kernel filling: 100.00%
              NGWF-Proj overlap matrix filling:  10.47%
                    Aug Overlap matrix filling:  41.90%
                    Hamiltonian matrix filling:  41.90%
                  NGWF diagonal matrix filling:   0.18%
                             KS matrix filling: 100.00% 
                           KSKS matrix filling: 100.00% 
================================================================================

Sparse matrix initialisation ... done
NGWF initialisation ...... done
============ Calculation of NGWF S^-1 using Hotelling algorithm ================ 
         Iteration  |  Frobenius norm and Maximum abs value    (of I-S*S_n^-1)   
               1       0.47109316E+02     0.99723523E+00
               2       0.46859683E+02     0.99448309E+00
               3       0.46393022E+02     0.98901587E+00
               4       0.45571112E+02     0.97822406E+00
               5       0.44258214E+02     0.95717178E+00
               6       0.42413233E+02     0.91694754E+00
               7       0.40087649E+02     0.84275041E+00
               8       0.37313478E+02     0.78940517E+00
               9       0.34218543E+02     0.77189759E+00
              10       0.31125791E+02     0.74828035E+00
              11       0.28051649E+02     0.73429598E+00
              12       0.24417494E+02     0.71254897E+00
              13       0.19679407E+02     0.67915077E+00
              14       0.13814696E+02     0.62025426E+00
              15       0.79364816E+01     0.52278628E+00
              16       0.39897989E+01     0.41432701E+00
              17       0.23472818E+01     0.32714918E+00
              18       0.14496626E+01     0.22432057E+00
              19       0.68435557E+00     0.12734768E+00
              20       0.18264704E+00     0.41284230E-01
              21       0.16116443E-01     0.43824460E-02
              22       0.15230337E-03     0.49882709E-04
              23       0.17487788E-07     0.64857577E-08
              24       0.67003967E-13     0.79936058E-14
================================================================================
Calculating core density ...
================================= Core Density =================================
               Core den box size:   21 x  21 x  21
================================================================================
 ... done
Up spin density kernel initialisation ...... done

Writing density kernel to file "40/592nano.dkn" ... done

>>> Optimising kernel for current NGWFs:

--------------------------- Ensemble-DFT optimisation --------------------------
Running ScaLAPACK on  160 processor(s).

--------------------------------------------------------------------------------
  Iter                              Commutator    Free_energy(A=E-TS)     DeltaA
#    0                          0.001247223770   -3118.91750759373872  -3.12E+03

Step                       =       0.381966011250
Energy                     =   -3118.878859241560
Entropy (-TS)              =      -0.038648352367
Free energy (A=E-TS)       =   -3118.917507593739
Est. 0K Energy 0.5*(E+A)   =   -3118.898183417649
Residual Non-orthogonality =       0.000000000000
Residual N_electrons       =       0.000000000189

Spin          Integrated_Ne            Fermi_level     Delta_Fermi_level
   1      2164.000000000821        -0.229836973835             -2.30E-01

                           Spin 1          
     Orb      H-eigenvalues     Occupancies
       1 |    -1.8882774158    1.0000000000 | 
                          ------
    1078 |    -0.2374159987    0.9163124255 | 
    1079 |    -0.2344909856    0.8129997351 | 
    1080 |    -0.2338476893    0.7801402437 | 
    1081 |    -0.2315865818    0.6347113632 | 
    1082 |    -0.2293228621    0.4595029907 | 
                 - Gap at zero temperature -
    1083 |    -0.2283133640    0.3819881722 | 
    1084 |    -0.2275529245    0.3271187171 | 
    1085 |    -0.2271016071    0.2965542588 | 
    1086 |    -0.2258321794    0.2201806186 | 
    1087 |    -0.2231930867    0.1092939203 | 
                          ------
    2244 |     0.5555649134    0.0000000000 | 

                       |  Abs_value |  Threshold | Converged
     Delta_Free_energy |   3.12E+03 |   1.00E-06 |        No
     Delta_Energy      |   3.12E+03 |   1.00E-04 |        No
     Delta_Entropy     |   3.86E-02 |   1.00E-04 |        No
     Commutator        |   1.25E-03 |   1.00E-05 |        No
     Delta_Fermi_level |   2.30E-01 |   1.00E-03 |        No

  Line search of the free energy minimum:
  Step_type        Step             Free_energy   Predicted_free_energy
.   Initial    0.000000    -3118.91750759373872
.    Trial1    0.381966    -3117.31423860652012
.    Trial2    0.145898    -3119.68203425176671
. Quadratic    0.138487    -3119.67194402312407    -3119.68423019787951
.     Cubic    0.160914    -3119.69151368677785    -3119.69038137863845

--------------------------------------------------------------------------------
  Iter                              Commutator    Free_energy(A=E-TS)     DeltaA
#    1                          0.000854323166   -3119.69151368677785  -7.74E-01

Step                       =       0.160913599346
Energy                     =   -3119.653683217313
Entropy (-TS)              =      -0.037830469227
Free energy (A=E-TS)       =   -3119.691513686778
Est. 0K Energy 0.5*(E+A)   =   -3119.672598452045
Residual Non-orthogonality =       0.000000000000
Residual N_electrons       =      -0.000000000237

Spin          Integrated_Ne            Fermi_level     Delta_Fermi_level
   1      2163.999999998904        -0.216615591470              1.32E-02

                           Spin 1          
     Orb      H-eigenvalues     Occupancies
       1 |    -1.9169544439    1.0000000000 | 
                          ------
    1078 |    -0.2237161827    0.9039746814 | 
    1079 |    -0.2225659641    0.8674938250 | 
    1080 |    -0.2204872955    0.7725185789 | 
    1081 |    -0.2186698012    0.6567102710 | 
    1082 |    -0.2176357954    0.5798493350 | 
                 - Gap at zero temperature -
    1083 |    -0.2155522152    0.4168330646 | 
    1084 |    -0.2140388679    0.3071100628 | 
    1085 |    -0.2135585509    0.2758108886 | 
    1086 |    -0.2095408696    0.0967367573 | 
    1087 |    -0.2087242620    0.0764290424 | 
                          ------
    2244 |     0.5712040216    0.0000000000 | 

                       |  Abs_value |  Threshold | Converged
     Delta_Free_energy |   7.74E-01 |   1.00E-06 |        No
     Delta_Energy      |   7.75E-01 |   1.00E-04 |        No
     Delta_Entropy     |   8.18E-04 |   1.00E-04 |        No
[...]
 C   353 -- C   359       -0.09      5.41440
 C   358 -- C   388       -0.09      5.41475
 C    99 -- C   569       -0.07      5.41481
 C   230 -- C   318       -0.09      5.41485
 C    43 -- C    65       -0.09      5.41502
 C   272 -- C   294       -0.09      5.41516
 C   479 -- C   491       -0.07      5.41523
 C   216 -- C   234       -0.08      5.41527
 C    73 -- C    79       -0.08      5.41532
 C   185 -- C   299       -0.09      5.41556
 C   222 -- C   300       -0.09      5.41570
 C    68 -- C    98       -0.08      5.41576
 C     1 -- C     7       -0.09      5.41594
 C    94 -- C   128       -0.09      5.41617
 C   348 -- C   374       -0.09      5.41618
 C   202 -- C   208       -0.09      5.41634
 C   222 -- C   374       -0.09      5.41635
 C    65 -- C   513       -0.06      5.41637
 C   350 -- C   380       -0.09      5.41639
 C   256 -- C   290       -0.09      5.41654
 C   406 -- C   440       -0.08      5.41659
 C    30 -- C   120       -0.09      5.41662
 C   318 -- C   380       -0.08      5.41680
 C    21 -- C   383       -0.09      5.41681
 C    97 -- C   523       -0.06      5.41725
 C   431 -- C   441       -0.09      5.41728
 C   212 -- C   230       -0.08      5.41758
 C   186 -- C   212       -0.08      5.41780
 C   244 -- C   278       -0.08      5.41787
 C    40 -- C    54       -0.09      5.41793
 C     4 -- C    42       -0.08      5.41800
 C    27 -- C    29       -0.08      5.41816
 C    49 -- C   391       -0.08      5.41818
 C    44 -- C    58       -0.09      5.41841
 C   262 -- C   292       -0.09      5.41853
 C   427 -- C   445       -0.08      5.41853
 C   279 -- C   383       -0.09      5.41891
 C    62 -- C   368       -0.09      5.41891
 C    35 -- C    41       -0.09      5.41912
 C    48 -- C   126       -0.09      5.41941
 C   215 -- C   225       -0.09      5.41946
 C    77 -- C    91       -0.08      5.41952
 C   237 -- C   275       -0.09      5.41984
 C   246 -- C   448       -0.08      5.41987
 C   111 -- C   121       -0.09      5.42049
 C    33 -- C    43       -0.09      5.42051
 C   227 -- C   309       -0.09      5.42053
 C    35 -- C   497       -0.08      5.42058
 C    97 -- C   123       -0.09      5.42065
 C   188 -- C   286       -0.08      5.42067
 C    10 -- C   458       -0.08      5.42068
 C    85 -- C    95       -0.08      5.42086
 C   342 -- C   388       -0.08      5.42121
 C    36 -- C    50       -0.09      5.42159
 C    72 -- C   102       -0.08      5.42167
 C   229 -- C   235       -0.09      5.42191
 C   175 -- C   256       -0.06      5.42205
 C    96 -- C   126       -0.09      5.42213
 C    80 -- C   538       -0.08      5.42234
 C   247 -- C   355       -0.08      5.42244
 C    37 -- C   367       -0.09      5.42249
 C   430 -- C   480       -0.08      5.42252
 C   408 -- C   416       -0.09      5.42254
 C     4 -- C   346       -0.09      5.42279
 C   258 -- C   288       -0.09      5.42294
 C    53 -- C   395       -0.08      5.42303
 C    38 -- C    56       -0.08      5.42319
 C    42 -- C    60       -0.09      5.42325
 C   189 -- C   191       -0.08      5.42360
 C    59 -- C    97       -0.09      5.42401
 C   242 -- C   328       -0.08      5.42403
 C    34 -- C    52       -0.08      5.42430
 C    21 -- C    63       -0.08      5.42441
 C     6 -- C   246       -0.09      5.42452
 C    88 -- C   118       -0.09      5.42509
 H   162 -- Li  594       -0.03      5.42548
 C    60 -- C   362       -0.09      5.42555
 C   285 -- C   287       -0.08      5.42568
 C   249 -- C   353       -0.08      5.42579
 C   181 -- C   287       -0.08      5.42589
 C    70 -- C   104       -0.08      5.42640
 C   302 -- C   346       -0.08      5.42663
 C     2 -- C   348       -0.08      5.42701
 C   202 -- C   216       -0.08      5.42710
 C    75 -- C    77       -0.08      5.42713
 C    19 -- C   451       -0.07      5.42722
 C    94 -- C   568       -0.07      5.42723
 C   231 -- C   241       -0.08      5.42784
 C   244 -- C   450       -0.08      5.42787
 C   205 -- C   263       -0.08      5.42801
 C   246 -- C   276       -0.08      5.42899
 C    14 -- C   450       -0.08      5.42905
 C   339 -- C   497       -0.09      5.42921
 C   422 -- C   430       -0.08      5.42923
 C   189 -- C   255       -0.08      5.42939
 C    65 -- C    91       -0.08      5.42943
 C    29 -- C   355       -0.08      5.43015
 C   413 -- C   441       -0.07      5.43058
 C    17 -- C   453       -0.07      5.43081
 C   109 -- C   123       -0.09      5.43125
 C   205 -- C   207       -0.08      5.43173
 C    56 -- C   342       -0.09      5.43195
 H   177 -- Li  622       -0.02      5.43209
 C    61 -- C   387       -0.08      5.43227
 C    99 -- C   121       -0.09      5.43233
 H   581 -- Li  610       -0.03      5.43236
 C    38 -- C   104       -0.08      5.43243
 C    25 -- C   249       -0.07      5.43264
 C   470 -- C   547       -0.09      5.43286
 C    45 -- C   359       -0.08      5.43400
 C   445 -- C   467       -0.07      5.43467
 C   416 -- C   476       -0.08      5.43488
 C   224 -- C   242       -0.08      5.43529
 C   357 -- C   367       -0.08      5.43532
 C     6 -- C   352       -0.08      5.43533
 C   204 -- C   294       -0.07      5.43535
 C    34 -- C   100       -0.08      5.43565
 C    40 -- C   102       -0.08      5.43587
 C     8 -- C   350       -0.08      5.43608
 C   103 -- C   525       -0.08      5.43623
 C   182 -- C   220       -0.08      5.43643
 C   385 -- C   395       -0.08      5.43762
 C    79 -- C    89       -0.08      5.43808
 C    87 -- C    93       -0.08      5.43834
 C   440 -- C   488       -0.07      5.43837
 C    17 -- C   281       -0.08      5.43842
 H   505 -- Li  621       -0.03      5.43865
 C    51 -- C   521       -0.08      5.43879
 H   472 -- Li  614       -0.02      5.43886
 H   571 -- Li  631       -0.02      5.43894
 C    39 -- C   506       -0.07      5.43964
 C    36 -- C    98       -0.08      5.44117
 C   293 -- C   295       -0.07      5.44295
 C   252 -- C   406       -0.09      5.44297
 C     2 -- C   270       -0.08      5.44502
 C    84 -- C   567       -0.08      5.44525
 C    96 -- C   567       -0.07      5.44539
 C   343 -- C   365       -0.07      5.44596
 C   319 -- C   361       -0.07      5.44613
 C   377 -- C   391       -0.08      5.44667
 C    80 -- C   556       -0.07      5.44713
 C    99 -- C   521       -0.07      5.44740
 C   423 -- C   489       -0.08      5.44806
 H   165 -- Li  602       -0.02      5.44806
 C    45 -- Li  628       -0.07      5.44837
 C    76 -- C   564       -0.07      5.44852
 C    67 -- C    89       -0.08      5.44855
 C   368 -- C   394       -0.07      5.44869
 C   338 -- C   380       -0.07      5.44921
 C   253 -- C   413       -0.08      5.45018
 C   409 -- C   485       -0.07      5.45030
 C   183 -- C   237       -0.07      5.45091
 C   190 -- C   284       -0.07      5.45145
 C    72 -- Li  615       -0.09      5.45208
 C   206 -- C   292       -0.07      5.45214
 C   343 -- C   506       -0.08      5.45241
 C    88 -- C   560       -0.07      5.45249
 H   587 -- Li  616       -0.02      5.45321
 C   198 -- C   204       -0.08      5.45425
 C   185 -- C   235       -0.07      5.45435
 C   333 -- C   365       -0.07      5.45511
 C   197 -- C   199       -0.08      5.45535
 C   316 -- C   390       -0.07      5.45591
 C    83 -- C   467       -0.08      5.45865
 C   220 -- C   238       -0.08      5.45887
 C   233 -- C   239       -0.07      5.45891
 C   234 -- Li  608       -0.09      5.46008
 C    92 -- C   564       -0.07      5.46065
 C   481 -- C   489       -0.07      5.46100
 C    55 -- C   525       -0.07      5.46175
 H   586 -- Li  618       -0.02      5.46296
 C   193 -- Li  594       -0.08      5.46382
 C    42 -- Li  628       -0.06      5.46643
 C    75 -- C   463       -0.08      5.46677
 C   199 -- C   241       -0.06      5.46700
 C   234 -- C   332       -0.08      5.46746
 C   112 -- Li  632       -0.08      5.46771
 C    35 -- C   511       -0.07      5.46847
 C    68 -- C   556       -0.08      5.46894
 C   364 -- C   390       -0.07      5.47098
 H   412 -- Li  606       -0.02      5.47246
 C   260 -- C   420       -0.08      5.47308
 C    72 -- C   560       -0.08      5.47637
 Li  594 -- Li  607       -0.17      5.47901
 C   252 -- C   286       -0.06      5.48189
 C    52 -- C   338       -0.08      5.48401
 C   181 -- C   183       -0.08      5.48443
 H   586 -- Li  620       -0.02      5.48500
 C   513 -- Li  631       -0.04      5.48601
 C    42 -- Li  632       -0.06      5.48663
 C   201 -- C   239       -0.06      5.49093
 H   401 -- Li  625       -0.02      5.49125
 H   398 -- Li  627       -0.02      5.49877
 C   210 -- Li  604       -0.06      5.50144
 C   254 -- C   284       -0.06      5.50520
 H   509 -- Li  610       -0.02      5.50615
 H   572 -- Li  631       -0.02      5.51383
 H   370 -- Li  627       -0.03      5.51576
 C   488 -- Li  606       -0.07      5.52535
 H   131 -- Li  617       -0.02      5.52580
 C    67 -- C   511       -0.07      5.52592
 H   174 -- Li  607       -0.02      5.52668
 H   147 -- Li  604       -0.02      5.53941
 H   583 -- Li  600       -0.02      5.55069
 H   369 -- Li  624       -0.02      5.55088
 H   591 -- Li  607       -0.02      5.55815
 C   203 -- Li  617       -0.06      5.56213
 H   557 -- Li  619       -0.02      5.56729
 C   570 -- C   575       -0.04      5.57122
 H   132 -- Li  617       -0.02      5.57312
 C   205 -- Li  622       -0.06      5.58616
 H   371 -- Li  609       -0.02      5.59775
 C    75 -- Li  613       -0.08      5.60245
 C    17 -- Li  630       -0.06      5.61197
 H   571 -- Li  597       -0.01      5.61228
 C   169 -- Li  625       -0.05      5.61698
 C    83 -- Li  612       -0.05      5.62164
 H   532 -- Li  611       -0.02      5.62721
 H   400 -- Li  621       -0.02      5.62798
 H   146 -- Li  604       -0.02      5.64052
 H   159 -- Li  602       -0.02      5.65331
 C   218 -- Li  608       -0.07      5.66005
 H   483 -- Li  606       -0.02      5.66352
==================================================


=================== Orbital energy and occupancy information ===================

      Total number of orbitals:    2244
        Occupancy sum (kernel):    1082.000000001
   Occupancy sum (eigenvalues):    1082.000000001
                 HOMO-LUMO gap:       0.001275132 Eh
                 Mid-gap level:      -0.064557948 Eh

                        Orbital | Energy (Eh) | Occupancy
                            1    -1.884802836   1.0000000
                        .......   ...........   .........
                         1074    -0.084297357   0.9960812
                         1075    -0.083169476   0.9944190
                         1076    -0.080590727   0.9874572
                         1077    -0.074912320   0.9290395
                         1078    -0.073715621   0.8997335
                         1079    -0.072081857   0.8426539
                         1080    -0.070282883   0.7520988
                         1081    -0.068327960   0.6205498
                         1082    -0.067094693   0.5253590
                         1083    -0.065195514   0.3780691
                        ....... -- gap at 0K -- .........
                         1084    -0.063920382   0.2889275
                         1085    -0.063542072   0.2651350
                         1086    -0.062044861   0.1834862
                         1087    -0.061156975   0.1451566
                         1088    -0.059770980   0.0986156
                         1089    -0.054702585   0.0214944
                         1090    -0.054547699   0.0204918
                         1091    -0.053460637   0.0146422
                         1092    -0.051767772   0.0086204
                         1093    -0.051015394   0.0068148
                        .......   ...........   .........
                         2244     0.781576529   0.0000000

================================================================================

===================== Writing canonical molecular orbitals =====================
| Orbital  Energy (eV)  Norm     |
| HOMO     -1.77406021  1.000000 | Writing "40/592nano_HOMO.cube" ... done
Writing "40/592nano_HOMO.dx" ... done
| LUMO     -1.73936210  1.000000 | Writing "40/592nano_LUMO.cube" ... done
Writing "40/592nano_LUMO.dx" ... done
================================================================================

================== Local Density of States (LDOS) calculation ==================
Writing "40/592nano_LDOS.txt" ...  done
================================================================================
 
===================== Density of States (DOS) calculation ======================
Writing "40/592nano_DOS.txt" ...  done
================================================================================
 
Writing bands to file "40/592nano.val_bands" ... done
 
================ Projected Density of States (pDOS) calculation ================
 
Constructing AM resolved functions  ...... done
Writing NGWF plot files in formats: CUBE DX ...  done
 
Performing overlap integrals ...  done
 
Computing pDOS weights ...  done
 
All bands spilling parameter =   3.02 %
Occupancy-weighted spilling parameter =   0.84 %
 
 => Outputting data for OptaDOS <=
 
Writing pDOS weights to file "40/592nano.val_pdos_bin" ... done
 
Writing band gradients to file "40/592nano.val_dome_bin" ... done
 
Writing Castep output cell file to "40/592nano-out.cell" ... done
 
 => Computing Gaussian smeared pDOS <= 
Writing "40/592nano_PDOS.txt" ...  done
 
 => Computing Occupancy-weighted Gaussian smeared pDOS <= 
Writing "40/592nano_occ_PDOS.txt" ...  done
  => Band centres: 
 S band centre of group 1:  -18.672902 eV
 P band centre of group 1:   -8.272056 eV
  Band centres done. <=
  => Integrated number of electrons in each AM band: 
 S num electrons of group 1:  610.104359
 P num electrons of group 1: 1535.673601
  Integrated number of electrons done. <=
================================================================================

------------------------------ TIMING INFORMATION ------------------------------
AVERAGE TIME:    9147.830s on    160 node(s)                                    
TOTAL TIME:      9147.831s on    160 node(s)                                    
================= AVERAGE TIMINGS FROM ALL NODES (CUMULATIVE) ==================
|| TAG                                    #calls    cpu time   %total  Gflops ||
|| work_imbalance                       :     1        0.00s   0.000%  ------ ||
|| paw_sphere_density_on_grid           :     1        0.01s   0.000%  ------ ||
|| paw_tcore_density                    :     1        0.01s   0.000%  ------ ||
|| sparse_set_to_garbage                :   159        0.01s   0.000%  ------ ||
|| basis_extract_function_from_box      :   392        0.02s   0.000%  ------ ||
|| paw_dij_hartree                      :  1010        0.03s   0.000%  ------ ||
|| ngwfs_initialise_from_radial         :     2        0.04s   0.000%  ------ ||
|| ewald_calculate_energy               :     1        0.11s   0.001%  ------ ||
|| density_init_guess_real              :     1        0.13s   0.001%  ------ ||
|| paw_dataset_init                     :     3        0.33s   0.004%  ------ ||
|| paw_tcore_hartree_on_grid            :     1        0.37s   0.004%  ------ ||
|| pseudo_make_structure_factor         :     1        0.51s   0.006%  ------ ||
|| sparse_init                          :     1        0.93s   0.010%  ------ ||
|| dense_normal_eigensolve              :     1        1.02s   0.011%  ------ ||
|| restart_kernel_write                 :    15        1.10s   0.012%  ------ ||
|| paw_species_calc_proj_prec_mat       :     1        2.20s   0.024%  ------ ||
|| sparse_embed_hotelling_invert_embed  :    27        5.65s   0.062%  ------ ||
|| fourier_apply_box_pair               :   589        6.71s   0.073%  2.321k ||
|| sw_init                              :     1        7.55s   0.083%  ------ ||
|| ngwf_gradient_coeffs                 :    14        7.91s   0.086%  ------ ||
|| augmentation_screen_dij              :   757       13.37s   0.146%  ------ ||
|| basis_copy_function_to_box           : 14684       20.79s   0.227%  ------ ||
|| paw_dij_xc                           :  1010       20.90s   0.228%  ------ ||
|| projectors_init_fftbox_recip         :    57       21.73s   0.238%  ------ ||
|| hartree_on_grid                      :   752       34.09s   0.373%  ------ ||
|| integrals_kinetic                    :    27       37.49s   0.410%  ------ ||
|| projectors_func_ovlp_box             :    28       40.69s   0.445%  ------ ||
|| hamiltonian_energy_components        :     3       45.16s   0.494%  ------ ||
|| function_ops_brappd_ketppd           :    56       53.71s   0.587%  ------ ||
|| eigenstates_pdos                     :     1       56.44s   0.617%  ------ ||
|| sparse_trace                         :  9438       59.65s   0.652%  ------ ||
|| aug_nonlocal_mat                     :   996       63.41s   0.693%  ------ ||
|| augmentation_density_on_grid         :   752       67.82s   0.741%  ------ ||
|| fourier_apply_cell_forward           :  3756       71.30s   0.779% 183.343 ||
|| fourier_apply_cell_backward          :  3757       77.08s   0.843% 169.648 ||
|| basis_dot_function_with_box          : 3.306M      91.66s   1.002%  ------ ||
|| eigenstates_calculate                :     1      108.38s   1.185%  ------ ||
|| xc_energy_potential                  :   751      136.12s   1.488%  ------ ||
|| restart_ngwfs_tightbox_output        :    13      140.12s   1.532%  ------ ||
|| dense_eigensolve                     :   721      222.60s   2.433%  ------ ||
|| sparse_product                       :  8311      237.68s   2.598%  ------ ||
|| basis_add_function_to_box            : 9.470M     248.06s   2.712%  ------ ||
|| integrals_locpot_mat_els_batch       :   253      317.12s   3.467%  ------ ||
|| projectors_gradient_batch            :    14      324.91s   3.552%  ------ ||
|| cell_grid_deposit_box_real           : 27119      372.45s   4.072%  ------ ||
|| cell_grid_extract_box_real           :  8069      379.64s   4.150%  ------ ||
|| projectors_grad_precond_batch        :    14      461.60s   5.046%  ------ ||
|| density_fftbox_deposit_to_cell       : 12032      673.26s   7.360%  ------ ||
|| density_batch_row_sums               :   752      840.10s   9.184%  ------ ||
|| ngwf_gradient_build_batch            :    14      871.52s   9.527%  ------ ||
|| edft_diag_ngwf_ham                   :   720      888.19s   9.709%  ------ ||
|| properties_calculate                 :     1      920.73s  10.065%  ------ ||
|| potential_apply_to_ngwf_batch        :   253      939.12s  10.266%  ------ ||
|| ngwf_gradient_batch                  :    14      945.98s  10.341%  ------ ||
|| ngwf_gradient_lnv                    :    14      959.36s  10.487%  ------ ||
|| fourier_apply_box                    : 46093     1000.32s  10.935%  3.977k ||
|| density_fftbox_interpolate_multiply  : 12032     1186.80s  12.974%  ------ ||
|| integrals_locpot_dbl_grid            :   253     1267.57s  13.856%  ------ ||
|| edft_apply_smearing_operator         :   720     1509.77s  16.504%  ------ ||
|| density_batch_interp_deposit         :   752     2251.80s  24.616%  ------ ||
|| density_on_dbl_grid                  :   752     3156.90s  34.510%  ------ ||
|| hamiltonian_lhxc_calculate           :   747     3486.25s  38.110%  ------ ||
|| edft_calculate                       :    14     6410.13s  70.073%  ------ ||
|| ngwf_cg_optimise                     :     1     8212.06s  89.771%  ------ ||
|| total_time                           :     1     9147.83s 100.000%  ------ ||
================================================================================
Overhead of generating timer report: 
- 0 ms averaging over threads,
- 25 ms ensuring consistency across MPI ranks,
- 0 ms printing in order.

Job completed: 20-07-2020 00:50 (+0100)

