 +---------------------------------------------------------------+
 |                                                               |
 |        ####### #     # ####### ####### ####### ######         |
 |        #     # ##    # #          #    #       #     #        |
 |        #     # # #   # #          #    #       #     #        |
 |        #     # #  #  # #####      #    #####   ######         |
 |        #     # #   # # #          #    #       #              |
 |        #     # #    ## #          #    #       #              |
 |        ####### #     # #######    #    ####### #              |
 |                                                               |
 |        Linear-Scaling Ab Initio Total Energy Program          |
 |                                                               |
 |          Release for academic collaborators of ODG            |
 |                                             Version 5.3.2.12  |
 |                                                               |
 +---------------------------------------------------------------+
 |                                                               |
 |  Authors:                                                     |
 |  Jacek Dziedzic, Peter D. Haynes, Nicholas D. M. Hine,        |
 |  Arash. A. Mostofi, Mike C. Payne and Chris-Kriton Skylaris   |
 |                                                               |
 |  Contributors:                                                |
 |  J. Aarons, L. Andrinopoulos, P. W. Avraam, R. A. Bell,       |
 |  A. Bhandari, G. A. Bramley, R. J. Charlton, S. J. Clark,     |
 |  R. J. Clements, G. C. Constantinescu, F. Corsetti,           |
 |  N. Corsini, O. Dieguez, S. M. M. Dubois, K. K. B. Duff,      |
 |  J. M. Escartin, A. Greco, H. Helal, Q. O. Hill, L. P. Lee,   |
 |  J.-H. Li, E. B. Linscott, G. Moynihan, D. D. O`Regan,        |
 |  O. K. Okan, M. J. S. Phipps, C. J. Pickard,                  |
 |  J. C. A. Prentice, M. I. J. Probert, L. E. Ratcliff,         |
 |  M. Robinson, A. Ruiz Serrano, J. S. Spencer, E. W. Tait,     |
 |  G. Teobaldi, D. Turban, V. Vitale, K. A. Wilkinson,          |
 |  C. Weber, J. C. Womack, N. Yeung and T. J. Zuehlsdorff       |
 |                                                               |
 |                                   Copyright (c) 2004-2020     |
 |                                                               |
 |  Please cite:                                                 |
 |  "Introducing ONETEP: Linear-scaling density functional       |
 |   simulations on parallel computers".                         |
 |   C.-K. Skylaris, P. D. Haynes, A. A. Mostofi, M. C. Payne.   |
 |   J. Chem. Phys. 122 084119 (2005).                           |
 |                                                               |
 |          in all publications arising from your use of ONETEP. |
 |                                                               |
 +---------------------------------------------------------------+
 |                                                               |
 |   ONETEP is based on developments described in the following  |
 |   publications:                                               |
 |                                                               |
 |  "Nonorthogonal generalized Wannier function pseudopotential  |
 |   plane-wave method".                                         |
 |   C.-K. Skylaris, A. A. Mostofi, P. D. Haynes, O. Dieguez,    |
 |   M. C. Payne.                                                |
 |   Phys. Rev. B 66 035119 (2002).                              |
 |                                                               |
 |  "Preconditioned iterative minimization for linear-scaling    |
 |   electronic structure calculations".                         |
 |   A. A. Mostofi, P. D. Haynes, C.-K. Skylaris, M. C. Payne.   |
 |   J. Chem. Phys. 119(17), pp.8842-8848 (2003).                |
 |                                                               |
 |  "Total-energy calculations on a real space grid with         |
 |   localized functions and a plane-wave basis".                |
 |   A. A. Mostofi, C.-K. Skylaris, P. D. Haynes, M. C. Payne.   |
 |   Comput. Phys. Commun. 147, pp.788-802 (2002).               |
 |                                                               |
 |  "Accurate kinetic energy evaluation in electronic structure  |
 |   calculations with localized functions on real space grids"  |
 |   C.-K. Skylaris, A. A. Mostofi, P. D. Haynes, C. J. Pickard, |
 |   M. C. Payne.                                                |
 |   Comput. Phys. Commun. 140, pp.315-322 (2001).               |
 |                                                               |
 |  "Accurate ionic forces and geometry optimization in linear-  |
 |   scaling density-functional theory with local orbitals"      |
 |   N. D. M. Hine, M. Robinson, P. D. Haynes, C.-K. Skylaris,   |
 |   M. C. Payne, and A. A. Mostofi.                             |
 |   Phys. Rev. B 83 195102 (2011).                              |
 |                                                               |
 +---------------------------------------------------------------+

Job started: 08-06-2020 05:27 (+0100)
 
Reading parameters from file "14/592nano.dat" ...... done

If your calculation crashes here, before "Checking processes and threads..."
is displayed, then your stack size is insufficient.
If so, use "ulimit -s unlimited" at runtime.
You can disable this check with "check_stack_size F".

Checking processes and threads...
   Determining the default number of threads...
      No default threads set at compilation time: defaulting to 1.
      OpenMP library call suggests 4 threads.
      Hybrid MPI-OpenMP compilation detected.
      Number of MPI processes > 1.
      OMP_NUM_THREADS environment variable present and
      its value matches the one obtained from the OpenMP library call.
      Using this value as default.
      Default threads: 4
      Default applies to threads_max and threads_num_fftboxes.
      Settings in the input file override this default.
   ... done

   Running with 140 MPI processes.
   There are 10 MPI processes running on the same node as the root process.
   Each MPI process is using: 
               1 threads for simulation cell FFTs.
               1 threads for parallel FFT box operations.
               4 threads for loops over batched FFT box operations.
               4 threads in other parallel regions.
... done

Basic input checks...
Resetting ngwf_cg_rotate to TRUE for EDFT calculations
... done

Reading geometry and species blocks from file "14/592nano.dat" ...    
  Number of PPD points along a3 set to 1.  This is 
  the default value, it may have been provided also in the input file.
... done
 Writing xyz coordinates to file "14/592nano.xyz" ... done


--------------------------------------------------------------------------------
---------------------------------- INPUT FILE ----------------------------------
--------------------------------------------------------------------------------

task : singlepoint                                                              
do_properties : true                                                            
dx_format T                                                                     
edft T                                                                          
output_detail VERBOSE                                                           
write_xyz T                                                                     
dispersion 4                                                                    
xc_functional PBE                                                               
cutoff_energy 830 eV                                                            
paw T                                                                           
geom_disp_tol 0.015 bohr                                                        
geom_energy_tol 1.5E-6 hartree                                                  
geom_force_tol 0.003 "ha/bohr"                                                  
EDFT_MAXIT 30                                                                   
pdos_max_l = 2                                                                  
dos_smear  0.1 eV                                                               
popn_calculate T                                                                
PDOS_PSEUDOATOMIC T                                                             
PDOS_REDUCE_SWS F                                                               
PDOS_CONSTRUCT_BASIS F                                                          
PDOS_LOWDIN T                                                                   
PDOS_ORTH_ATOM_BLOCKS F                                                         
PDOS_LCAO_OPTIMIZE F                                                            
pdos_optados_output T                                                           
homo_plot 0                                                                     
lumo_plot 0                                                                     
homo_dens_plot -1                                                               
lumo_dens_plot -1                                                               
%BLOCK SPECIES                                                                  
C C 6 4 9.0                                                                     
H H 1 1 9.0                                                                     
Li Li 3 5 9.0                                                                   
%ENDBLOCK SPECIES                                                               
%BLOCK SPECIES_POT                                                              
C "~/pp/paw/c_pbe_abinit.paw"                                                   
H "~/pp/paw/h_pbe_abinit.paw"                                                   
Li "~/pp/paw/li_pbe_abinit.paw"                                                 
%ENDBLOCK SPECIES_POT                                                           
%BLOCK SPECIES_ATOMIC_SET                                                       
C "SOLVE conf=2s2 2p2"                                                          
H "SOLVE conf=1s1"                                                              
Li "SOLVE conf=1s2 2s1 2p0"                                                     
%ENDBLOCK SPECIES_ATOMIC_SET                                                    
%BLOCK LATTICE_CART                                                             
94.486315650000      0.000000000000       0.000000000000                        
0.000000000000       94.486315650000      0.000000000000                        
0.000000000000       0.000000000000       94.486315650000                       
%ENDBLOCK LATTICE_CART                                                          
%BLOCK POSITIONS_ABS                                                            
C 45.493075 50.697692 30.697891                                                 
C 45.421507 50.583996 36.823854                                                 
C 46.839534 53.031039 30.730938                                                 
C 48.109353 50.585442 36.829027                                                 
C 49.534055 48.371253 30.690377                                                 
C 49.454538 48.259361 36.824959                                                 
C 50.876263 50.704006 30.720234                                                 
C 52.143077 48.263036 36.826182                                                 
C 45.497102 55.361881 30.724884                                                 
C 45.424950 55.241818 36.829424                                                 
C 46.848380 57.694680 30.707480                                                 
C 48.110409 55.242236 36.845856                                                 
C 49.531806 53.033219 30.740621                                                 
C 49.452666 52.914296 36.842384                                                 
C 50.881308 55.367666 30.754529                                                 
C 52.140237 52.915736 36.847669                                                 
C 45.392480 50.506938 42.978863                                                 
C 45.354096 50.416093 49.063154                                                 
C 46.741206 52.832227 42.960027                                                 
C 48.046796 50.413672 49.058546                                                 
C 49.426481 48.179288 42.963908                                                 
C 49.394211 48.083173 49.063489                                                 
C 50.773182 50.504041 42.950058                                                 
C 52.087084 48.079249 49.080579                                                 
C 45.402916 55.161619 42.957063                                                 
C 45.357971 55.075540 49.097766                                                 
C 46.754115 57.487137 42.962975                                                 
C 48.047842 55.070287 49.075009                                                 
C 49.431073 52.830890 42.951652                                                 
C 49.392567 52.740293 49.060908                                                 
C 50.779790 55.156544 42.957083                                                 
C 52.087007 52.734744 49.060710                                                 
C 57.622916 48.374485 30.682246                                                 
C 57.518759 48.266893 36.826420                                                 
C 58.964862 50.699413 30.698678                                                 
C 60.235948 48.274061 36.823837                                                 
C 57.501513 48.176810 42.955617                                                 
C 57.473249 48.067305 49.102244                                                 
C 58.843839 50.498736 42.954614                                                 
C 60.193665 48.067377 49.100801                                                 
C 53.572352 50.703762 30.722377                                                 
C 53.483175 50.590184 36.837217                                                 
C 54.916289 53.033340 30.752225                                                 
C 56.178077 50.593308 36.836340                                                 
C 53.463575 50.503075 42.947232                                                 
C 53.432906 50.407015 49.072986                                                 
C 54.809770 52.827215 42.950207                                                 
C 56.131156 50.400298 49.082195                                                 
C 57.639902 43.726007 30.695131                                                 
C 57.524492 43.607891 36.820897                                                 
C 58.972548 46.044124 30.658059                                                 
C 60.241641 43.630762 36.811657                                                 
C 57.501251 43.533172 42.966866                                                 
C 57.474177 43.410522 49.131545                                                 
C 58.839815 45.845276 42.962852                                                 
C 60.191880 43.427673 49.128852                                                 
C 53.582206 46.047285 30.698971                                                 
C 53.489713 45.934440 36.822913                                                 
C 54.923814 48.378227 30.698939                                                 
C 56.182690 45.939907 36.822205                                                 
C 53.461983 45.854183 42.960040                                                 
C 53.434403 45.749952 49.099122                                                 
C 54.806235 48.176442 42.952272                                                 
C 56.132771 45.747479 49.115642                                                 
C 57.614370 57.693117 30.859356                                                 
C 57.510989 57.582606 36.889203                                                 
C 58.956550 60.080735 30.882404                                                 
C 60.228374 57.566114 36.900081                                                 
C 57.511615 57.468793 42.961944                                                 
C 57.471786 57.391564 48.986976                                                 
C 58.858662 59.828681 42.966084                                                 
C 60.213963 57.357488 48.984810                                                 
C 45.499848 64.684011 30.727266                                                 
C 45.442002 64.558256 36.811636                                                 
C 46.894174 67.038018 30.792584                                                 
C 48.114471 64.558537 36.851939                                                 
C 49.545818 62.366278 30.685680                                                 
C 49.462198 62.231196 36.861676                                                 
C 50.919201 64.728407 30.705853                                                 
C 52.145148 62.229773 36.887436                                                 
C 45.424205 64.475980 42.957648                                                 
C 45.390986 64.402481 49.253221                                                 
C 46.801613 66.815273 43.006139                                                 
C 48.064685 64.400569 49.195790                                                 
C 49.452582 62.139485 42.992591                                                 
C 49.411753 62.069591 49.143088                                                 
C 50.819473 64.487737 43.013761                                                 
C 52.093704 62.068349 49.120969                                                 
C 53.583010 60.036413 30.766466                                                 
C 53.486960 59.905253 36.886260                                                 
C 54.938768 62.408661 30.773677                                                 
C 56.175580 59.899900 36.898753                                                 
C 53.480541 59.805568 42.979391                                                 
C 53.427076 59.735890 49.065654                                                 
C 54.840084 62.159425 42.989130                                                 
C 56.128354 59.726545 49.015694                                                 
C 57.612754 53.018155 30.755048                                                 
C 57.515019 52.922864 36.851666                                                 
C 58.960071 55.359888 30.828065                                                 
C 60.232561 52.920574 36.857433                                                 
C 57.504980 52.823491 42.953415                                                 
C 57.474936 52.725223 49.058192                                                 
C 58.847588 55.152581 42.957667                                                 
C 60.204401 52.710811 49.060130                                                 
C 45.504033 60.022969 30.663074                                                 
C 45.430707 59.898802 36.816278                                                 
C 46.865100 62.351318 30.665380                                                 
C 48.113168 59.898560 36.846923                                                 
C 49.540609 57.700295 30.735587                                                 
C 49.454930 57.570567 36.858493                                                 
C 50.891666 60.037118 30.721015                                                 
C 52.141344 57.570825 36.870542                                                 
C 45.416242 59.818126 42.953322                                                 
C 45.370761 59.735547 49.174977                                                 
C 46.768678 62.147259 42.972379                                                 
C 48.058842 59.733094 49.122084                                                 
C 49.440982 57.483174 42.968065                                                 
C 49.397124 57.401487 49.078309                                                 
C 50.793341 59.813837 42.981507                                                 
C 52.088562 57.397894 49.056190                                                 
C 53.570687 55.366279 30.773905                                                 
C 53.482046 55.246450 36.863879                                                 
C 54.910323 57.708146 30.795966                                                 
C 56.175255 55.247352 36.867265                                                 
C 53.469914 55.151409 42.955967                                                 
C 53.432637 55.063396 49.043976                                                 
C 54.819969 57.481804 42.965670                                                 
C 56.128058 55.047176 49.034912                                                 
H 27.268555 41.364538 30.185305                                                 
H 28.248259 39.535473 36.980531                                                 
H 27.224084 41.164201 43.093115                                                 
H 28.196815 39.337805 49.427336                                                 
H 41.850705 30.268269 29.984003                                                 
C 42.895123 32.054519 29.965754                                                 
H 44.502368 30.155938 37.120556                                                 
H 41.734459 30.086883 43.073325                                                 
C 42.775694 31.874698 43.063256                                                 
H 44.370530 29.982030 48.969840                                                 
H 29.600064 37.288018 30.118624                                                 
C 30.645175 39.070036 30.072920                                                 
H 32.277909 37.194921 37.136846                                                 
H 33.706769 34.877717 29.894550                                                 
C 34.734411 36.669939 29.862682                                                 
H 29.535409 37.113597 42.905890                                                 
C 30.572024 38.903713 42.887652                                                 
H 32.230606 36.994816 49.826135                                                 
H 33.610016 34.758117 42.382446                                                 
C 34.643740 36.536470 42.590835                                                 
H 37.812985 32.567325 29.746119                                                 
C 38.822324 34.373432 29.721842                                                 
H 40.432649 32.481731 37.261400                                                 
H 37.695722 32.399308 42.756916                                                 
C 38.721797 34.195749 42.829009                                                 
H 40.298727 32.321322 49.331416                                                 
H 46.501295 30.271362 30.425253                                                 
H 46.411280 30.108725 43.078833                                                 
H 25.877483 48.278332 37.084358                                                 
C 27.945171 48.280321 37.063635                                                 
H 25.811524 48.051895 50.096539                                                 
C 27.878212 48.068750 50.029715                                                 
H 25.892492 43.574143 37.011431                                                 
H 27.268123 46.093575 29.834635                                                 
C 27.960647 43.569817 36.980304                                                 
H 25.838919 43.366467 49.739168                                                 
H 27.213910 45.830936 42.657340                                                 
C 27.906296 43.363132 49.772923                                                 
H 25.918410 57.645331 36.852295                                                 
H 27.324283 60.062398 30.601549                                                 
C 27.987016 57.652877 36.806121                                                 
H 25.814377 57.454449 49.103379                                                 
H 27.253272 59.888141 42.927553                                                 
C 27.877612 57.446397 49.227003                                                 
H 25.900522 52.995183 37.023341                                                 
H 27.331297 55.424635 30.325145                                                 
C 27.969409 52.980258 36.968897                                                 
H 25.784982 52.755286 49.739769                                                 
H 27.235858 55.228686 42.940524                                                 
C 27.852738 52.752987 49.712312                                                 
C 29.332994 41.368297 30.113886                                                 
C 29.267433 41.333935 36.953417                                                 
C 30.611201 43.746558 30.041528                                                 
C 31.965443 41.260064 36.961910                                                 
C 33.338206 38.967426 29.957931                                                 
C 33.321604 38.978257 37.040746                                                 
C 34.696561 41.370011 30.029510                                                 
C 35.990390 38.907756 37.183772                                                 
C 29.336181 46.085284 29.879572                                                 
C 29.240783 45.949218 37.033808                                                 
C 30.646525 48.426532 29.782987                                                 
C 31.964473 45.929754 36.975812                                                 
C 33.356681 43.709420 30.083783                                                 
C 33.306469 43.605347 36.943660                                                 
C 34.715853 46.059726 30.145875                                                 
C 36.005942 43.597796 36.931513                                                 
C 29.289632 41.152587 42.981557                                                 
C 29.213292 41.129840 49.612505                                                 
C 30.574396 43.527316 42.902604                                                 
C 31.908265 41.065091 49.698561                                                 
C 33.271360 38.822784 42.767718                                                 
C 33.268720 38.787320 49.820121                                                 
C 34.617765 41.183348 42.923184                                                 
C 35.939467 38.738211 49.970901                                                 
C 29.280731 45.838722 42.752394                                                 
C 29.184415 45.737976 49.939929                                                 
C 30.564179 48.195740 42.655487                                                 
C 31.900374 45.731132 49.777626                                                 
C 33.280631 43.510566 42.939651                                                 
C 33.245380 43.415186 49.686716                                                 
C 34.625517 45.852144 42.941653                                                 
C 35.943546 43.416600 49.583496                                                 
C 41.472431 39.039782 29.940791                                                 
C 41.409401 38.926733 37.034575                                                 
C 42.810961 41.375677 30.215038                                                 
C 44.099814 38.930955 36.994283                                                 
C 41.369320 38.850073 43.016278                                                 
C 41.336335 38.754217 49.412058                                                 
C 42.705682 41.188951 43.025722                                                 
C 44.010420 38.765036 49.220360                                                 
C 37.425667 41.363129 30.048166                                                 
C 37.353613 41.273252 37.019875                                                 
C 38.758650 43.698760 30.256743                                                 
C 40.048454 41.263261 36.955718                                                 
C 37.324653 41.178154 42.962758                                                 
C 37.292255 41.100511 49.669399                                                 
C 38.667202 43.517901 43.023549                                                 
C 39.986231 41.084485 49.469472                                                 
C 41.478597 34.350048 29.761009                                                 
C 41.453703 34.275834 37.184329                                                 
C 42.853150 36.701310 29.786682                                                 
C 44.114958 34.242902 37.140379                                                 
C 41.351794 34.178923 43.004100                                                 
C 41.334043 34.112043 49.353718                                                 
C 42.722064 36.524089 43.036520                                                 
C 43.976046 34.072941 49.125170                                                 
C 37.415372 36.631384 29.747159                                                 
C 37.374557 36.614795 37.101718                                                 
C 38.782723 39.021737 29.879584                                                 
C 40.042309 36.559886 37.127032                                                 
C 37.326703 36.472878 42.721291                                                 
C 37.328609 36.446700 49.903609                                                 
C 38.680437 38.844591 42.912660                                                 
C 39.972257 36.390041 49.565418                                                 
C 41.452789 48.366343 30.571409                                                 
C 41.390380 48.256512 36.821622                                                 
C 42.798708 50.696989 30.662088                                                 
C 44.077796 48.255830 36.819880                                                 
C 41.357689 48.178786 43.010521                                                 
C 41.316624 48.086130 49.165499                                                 
C 42.702956 50.507319 42.997160                                                 
C 44.009244 48.085289 49.097828                                                 
C 29.400089 55.416706 30.353390                                                 
C 29.271759 55.266880 36.853497                                                 
C 30.688515 57.713948 30.504523                                                 
C 31.987661 55.275304 36.802506                                                 
C 33.394416 53.075039 30.331046                                                 
C 33.324977 52.942003 36.844401                                                 
C 34.735518 55.386975 30.506831                                                 
C 36.017588 52.926622 36.803178                                                 
C 29.304330 55.216110 42.950155                                                 
C 29.142524 55.061722 49.423179                                                 
C 30.599628 57.512341 42.911691                                                 
C 31.885444 55.091539 49.404588                                                 
C 33.294512 52.862724 42.937745                                                 
C 33.239501 52.748085 49.459167                                                 
C 34.641754 55.180890 42.924356                                                 
C 35.927679 52.751857 49.320285                                                 
C 37.418824 50.709077 30.475480                                                 
C 37.356975 50.592454 36.821665                                                 
C 38.766339 53.039493 30.599589                                                 
C 40.047630 50.586951 36.810257                                                 
C 37.323182 50.513199 42.995693                                                 
C 37.275487 50.418786 49.280364                                                 
C 38.672139 52.841706 42.982392                                                 
C 39.971070 50.417202 49.169675                                                 
C 41.455977 43.700574 30.347031                                                 
C 41.392206 43.592093 36.870261                                                 
C 42.799674 46.034028 30.518782                                                 
C 44.084677 43.594076 36.851790                                                 
C 41.355515 43.517553 43.018927                                                 
C 41.324780 43.419270 49.300776                                                 
C 42.700370 45.849185 43.009448                                                 
C 44.014647 43.423126 49.185817                                                 
C 29.383479 50.765120 29.937294                                                 
C 29.238407 50.631331 37.036002                                                 
C 30.679605 53.088305 30.198032                                                 
C 31.973964 50.618691 36.956782                                                 
C 33.384945 48.399903 30.063383                                                 
C 33.317644 48.275574 36.947016                                                 
C 34.725177 50.726587 30.287861                                                 
C 36.014465 48.265373 36.861005                                                 
C 29.282495 50.537807 42.795542                                                 
C 29.145445 50.431578 49.878471                                                 
C 30.574696 52.869101 42.912275                                                 
C 31.892894 50.424969 49.681940                                                 
C 33.292633 48.184268 42.854376                                                 
C 33.243255 48.091013 49.648705                                                 
C 34.631663 50.521393 42.942698                                                 
C 35.938084 48.088450 49.418308                                                 
C 37.408538 46.040218 30.315396                                                 
C 37.356235 45.930598 36.867870                                                 
C 38.757025 48.369566 30.465754                                                 
C 40.043858 45.923923 36.844021                                                 
C 37.321224 45.850723 43.005822                                                 
C 37.286156 45.755245 49.413523                                                 
C 38.664084 48.179800 43.009799                                                 
C 39.972555 45.751587 49.286826                                                 
C 45.477272 32.056330 30.216633                                                 
C 45.542436 31.940854 37.065923                                                 
C 46.897816 34.355213 30.282718                                                 
C 48.123151 31.959458 36.943684                                                 
H 49.173720 30.177624 36.893075                                                 
H 50.538119 32.582375 30.738064                                                 
C 45.532097 36.699187 30.106085                                                 
C 45.479009 36.593119 37.038728                                                 
C 46.862885 39.038160 30.337930                                                 
C 48.158831 36.605450 36.931646                                                 
C 49.528147 34.378471 30.565137                                                 
C 49.532847 34.269391 36.905869                                                 
C 50.916753 36.649750 30.671815                                                 
C 52.171784 34.313967 36.849054                                                 
C 45.357960 31.887483 43.062811                                                 
C 45.407660 31.769313 49.017218                                                 
C 46.777224 34.195747 43.034891                                                 
C 48.029513 31.766216 49.009291                                                 
H 49.060904 29.975251 48.964678                                                 
H 50.439994 32.442350 42.984223                                                 
C 45.398373 36.535340 43.042337                                                 
C 45.371461 36.427739 49.104115                                                 
C 46.746449 38.863779 43.024965                                                 
C 48.066804 36.430133 49.052446                                                 
C 49.408215 34.235454 43.004541                                                 
C 49.463910 34.073241 49.035813                                                 
C 50.800107 36.519630 42.999250                                                 
C 52.114195 34.119901 49.097234                                                 
H 53.209787 32.522725 36.832596                                                 
H 53.150904 32.329232 49.080297                                                 
C 57.652178 39.097561 30.797542                                                 
C 57.546733 38.928729 36.824820                                                 
C 58.987144 41.370703 30.717926                                                 
C 60.259063 39.008663 36.816111                                                 
C 57.503148 38.916294 42.974194                                                 
C 57.489241 38.734464 49.155974                                                 
C 58.844865 41.170860 42.972818                                                 
C 60.201801 38.806470 49.153768                                                 
C 45.492521 46.035369 30.583668                                                 
C 45.425853 45.926181 36.825624                                                 
C 46.839461 48.367518 30.667047                                                 
C 48.112311 45.928393 36.823691                                                 
C 49.540907 43.712064 30.628177                                                 
C 49.463345 43.601062 36.832060                                                 
C 50.886996 46.042397 30.679185                                                 
C 52.153142 43.606930 36.825682                                                 
C 45.391218 45.851439 42.998820                                                 
C 45.358755 45.756206 49.105392                                                 
C 46.735759 48.178686 42.981652                                                 
C 48.049698 45.754845 49.074558                                                 
C 49.426860 43.526012 42.989089                                                 
C 49.401874 43.424246 49.084224                                                 
C 50.770718 45.850829 42.968685                                                 
C 52.092762 43.422906 49.099513                                                 
C 53.609326 41.388302 30.750447                                                 
C 53.506540 41.276626 36.831987                                                 
C 54.945425 43.720893 30.711604                                                 
C 56.195815 41.288927 36.825369                                                 
C 53.465131 41.201481 42.978108                                                 
C 53.446009 41.087670 49.118851                                                 
C 54.808611 43.522086 42.967089                                                 
C 56.140886 41.094084 49.142534                                                 
H 57.252293 34.875896 36.829565                                                 
H 58.696104 37.314941 30.887683                                                 
H 57.188716 34.680432 49.148689                                                 
H 58.536644 37.125182 42.975503                                                 
C 45.506775 41.376481 30.356626                                                 
C 45.441610 41.272458 36.889246                                                 
C 46.844512 43.703723 30.536129                                                 
C 48.126883 41.272067 36.861470                                                 
C 49.539855 39.028537 30.581320                                                 
C 49.488977 38.938437 36.874832                                                 
C 50.895404 41.377789 30.673735                                                 
C 52.171330 38.946406 36.845147                                                 
C 45.394247 41.194778 43.018269                                                 
C 45.365116 41.095195 49.160253                                                 
C 46.738249 43.522927 43.002844                                                 
C 48.059591 41.094379 49.099130                                                 
C 49.432263 38.869345 43.008268                                                 
C 49.420737 38.767162 49.086710                                                 
C 50.776851 41.193661 42.992226                                                 
C 52.108259 38.761475 49.107975                                                 
C 53.600651 36.715754 30.756867                                                 
C 53.538845 36.597263 36.841700                                                 
C 54.984971 39.016577 30.813475                                                 
C 56.210619 36.665080 36.828008                                                 
C 53.457732 36.575369 42.981043                                                 
C 53.478866 36.404448 49.121499                                                 
C 54.823163 38.847267 42.977295                                                 
C 56.147971 36.469031 49.155064                                                 
H 61.283507 37.210912 36.819212                                                 
H 62.711390 39.645906 30.702770                                                 
H 61.224186 37.006355 49.145233                                                 
H 62.573100 39.443610 42.972306                                                 
H 28.277147 61.683619 36.695593                                                 
H 28.173257 61.517341 49.095842                                                 
C 29.392513 60.089065 30.580725                                                 
C 29.287534 59.879906 36.721758                                                 
C 30.679397 62.330124 30.616205                                                 
C 31.996766 59.947909 36.691472                                                 
C 33.398176 57.728381 30.547032                                                 
C 33.333920 57.585750 36.733999                                                 
C 34.731785 60.046409 30.589142                                                 
C 36.023931 57.586725 36.730028                                                 
H 29.653384 64.126076 30.663118                                                 
H 32.314082 63.996324 36.606053                                                 
C 33.385855 62.405047 30.597103                                                 
C 33.346586 62.204167 36.641526                                                 
C 34.730625 64.675543 30.581484                                                 
C 36.020287 62.265514 36.655707                                                 
C 29.320579 59.900519 42.868656                                                 
C 29.200314 59.727738 49.228167                                                 
C 30.602415 62.138879 42.717472                                                 
C 31.896269 59.812147 49.427794                                                 
C 33.307110 57.520119 42.861415                                                 
C 33.235156 57.422164 49.411802                                                 
C 34.649968 59.836465 42.715353                                                 
C 35.949992 57.425444 49.444127                                                 
H 29.579297 63.936480 42.657510                                                 
H 32.236458 63.882222 49.702567                                                 
C 33.309763 62.208880 42.602530                                                 
C 33.270649 62.089388 49.672525                                                 
C 34.680101 64.486008 42.508140                                                 
C 35.945202 62.126851 49.865737                                                 
C 41.461811 57.697744 30.660774                                                 
C 41.398873 57.572672 36.778424                                                 
C 42.808919 60.025579 30.635034                                                 
C 44.083253 57.571391 36.810342                                                 
C 41.377575 57.498444 42.906451                                                 
C 41.325263 57.413605 49.251767                                                 
C 42.731113 59.824151 42.900847                                                 
C 44.017889 57.409727 49.164610                                                 
C 37.423968 60.046578 30.598206                                                 
C 37.371405 59.907568 36.703678                                                 
C 38.763687 62.370842 30.577166                                                 
C 40.056193 59.908574 36.736500                                                 
C 37.356175 59.838224 42.726288                                                 
C 37.302740 59.748073 49.590009                                                 
C 38.715549 62.169898 42.676165                                                 
C 39.991697 59.753427 49.430952                                                 
C 41.458231 53.033095 30.674348                                                 
C 41.393547 52.915100 36.804613                                                 
C 42.806617 55.362369 30.699817                                                 
C 44.079544 52.913173 36.819947                                                 
C 41.363010 52.839540 42.981408                                                 
C 41.317142 52.748632 49.132067                                                 
C 42.713189 55.164442 42.953640                                                 
C 44.007993 52.746449 49.087176                                                 
C 37.429934 55.377697 30.597222                                                 
C 37.365926 55.250605 36.766582                                                 
C 38.772557 57.706191 30.630726                                                 
C 40.052779 55.247518 36.781234                                                 
C 37.337971 55.174335 42.926383                                                 
C 37.282236 55.088772 49.299058                                                 
C 38.691761 57.497156 42.866313                                                 
C 39.973912 55.085248 49.218616                                                 
C 41.411725 67.043430 30.707591                                                 
C 41.445689 66.871409 36.740830                                                 
C 42.848385 69.345962 30.837173                                                 
C 44.070269 66.904480 36.801786                                                 
C 41.386008 66.835068 42.815306                                                 
C 41.391274 66.712686 49.464513                                                 
C 42.807857 69.141202 42.916123                                                 
C 44.025616 66.742652 49.317804                                                 
H 37.749207 68.815276 30.632095                                                 
H 40.412492 68.663963 36.738732                                                 
H 37.734396 68.612925 42.600516                                                 
H 40.366515 68.509588 49.508752                                                 
C 41.449396 62.353505 30.607782                                                 
C 41.405867 62.232474 36.736964                                                 
C 42.806048 64.685762 30.686247                                                 
C 44.086651 62.233099 36.785797                                                 
C 41.401167 62.163216 42.822286                                                 
C 41.357089 62.083251 49.429799                                                 
C 42.751661 64.486594 42.870681                                                 
C 44.030207 62.075360 49.272550                                                 
H 33.692221 66.466616 30.611307                                                 
H 33.646978 66.276472 42.456578                                                 
C 37.394221 64.732198 30.568539                                                 
C 37.395457 64.538228 36.648966                                                 
C 38.768974 67.015030 30.598571                                                 
C 40.046428 64.586291 36.699446                                                 
C 37.363860 64.542137 42.556167                                                 
C 37.343609 64.398743 49.801737                                                 
C 38.759090 66.817132 42.656142                                                 
C 40.007376 64.439894 49.578797                                                 
C 61.691067 41.442845 30.669399                                                 
C 61.537897 41.245800 36.808435                                                 
C 62.979239 43.681892 30.606022                                                 
H 63.604374 41.273757 36.804882                                                 
C 61.685795 46.057446 30.619688                                                 
C 61.519777 45.923044 36.812032                                                 
C 62.975464 48.358413 30.617939                                                 
H 63.587732 45.924949 36.809868                                                 
H 65.047110 43.699222 30.575495                                                 
C 61.559778 41.245903 42.973594                                                 
C 61.488801 41.043818 49.132300                                                 
C 62.850284 43.476535 42.969496                                                 
H 63.558363 41.066934 49.100971                                                 
C 61.557324 45.862118 42.965746                                                 
C 61.476437 45.722096 49.101747                                                 
C 62.842266 48.156286 42.960487                                                 
H 63.545115 45.720730 49.062239                                                 
H 64.919698 43.492567 42.965954                                                 
C 61.700385 55.328649 30.821435                                                 
C 61.511360 55.274454 36.888999                                                 
C 62.984769 57.726584 30.864484                                                 
H 63.579794 55.275674 36.910252                                                 
H 65.056451 53.021551 30.728792                                                 
C 61.564967 55.131005 42.957935                                                 
C 61.496499 55.049364 49.026459                                                 
C 62.861959 57.513945 42.958260                                                 
H 63.563550 55.049281 48.980416                                                 
H 64.916997 52.830441 42.953729                                                 
C 61.693244 50.691466 30.674939                                                 
C 61.516859 50.597864 36.842845                                                 
C 62.987396 53.020881 30.718039                                                 
H 65.045177 48.353640 30.609260                                                 
C 61.558139 50.496299 42.957174                                                 
C 61.482247 50.388206 49.073345                                                 
C 62.846267 52.831410 42.956228                                                 
H 64.912562 48.153858 42.959582                                                 
H 41.820917 71.134966 30.952426                                                 
H 44.443709 70.995709 36.886439                                                 
H 41.766570 70.928677 42.900906                                                 
H 44.389791 70.832221 49.247460                                                 
C 45.459837 69.341461 30.898114                                                 
C 45.494789 69.214916 36.862443                                                 
H 46.490566 71.123020 31.070454                                                 
C 48.073173 69.215536 36.898653                                                 
C 49.535502 67.007569 30.744965                                                 
C 49.490112 66.901509 36.888042                                                 
H 50.550385 68.806774 30.827378                                                 
C 52.120984 66.863921 36.917030                                                 
H 49.121420 70.999148 36.950817                                                 
C 45.385326 69.128390 43.006777                                                 
C 45.439770 69.051087 49.259159                                                 
H 46.439393 70.905861 43.067908                                                 
C 48.023385 69.051822 49.218888                                                 
C 49.428399 66.774427 43.032897                                                 
C 49.435663 66.742132 49.204988                                                 
H 50.463274 68.564675 43.061005                                                 
C 52.074075 66.708112 49.194088                                                 
H 49.071793 70.834902 49.180458                                                 
H 57.205728 66.316336 36.948262                                                 
H 57.156653 66.174759 49.141736                                                 
H 53.155510 68.657504 36.945659                                                 
H 53.105880 68.502754 49.193901                                                 
C 57.604153 62.352705 30.833977                                                 
C 57.517336 62.261778 36.921382                                                 
H 58.641939 64.140971 30.897753                                                 
C 60.229510 62.189966 36.934509                                                 
C 57.519046 62.087161 42.975013                                                 
C 57.475306 62.114418 49.044626                                                 
H 58.556380 63.876953 42.965175                                                 
C 60.195659 62.023175 49.029930                                                 
C 53.570625 64.681856 30.746211                                                 
C 53.502574 64.579908 36.912288                                                 
C 56.170319 64.523303 36.929323                                                 
C 53.474284 64.433438 43.007106                                                 
C 53.453843 64.430363 49.153810                                                 
C 56.120211 64.383509 49.137414                                                 
C 61.673921 59.989897 30.908475                                                 
C 61.516838 59.955516 36.929844                                                 
H 62.701117 61.781218 30.960476                                                 
H 63.583994 59.934693 36.954732                                                 
H 65.052472 57.722899 30.879943                                                 
H 61.248427 63.991107 36.961051                                                 
C 61.572969 59.747811 42.957629                                                 
C 61.499205 59.756489 48.983973                                                 
H 62.590600 61.548026 42.941672                                                 
H 63.564833 59.747318 48.948588                                                 
H 64.931978 57.495780 42.944306                                                 
H 61.228768 63.814124 49.032430                                                 
H 63.549158 50.384403 49.032314                                                 
H 36.305785 34.659253 50.105089                                                 
H 36.323941 66.196729 49.902969                                                 
H 27.216581 50.548772 42.683017                                                 
H 54.508562 66.223898 43.012849                                                 
H 63.584461 50.598854 36.850645                                                 
H 54.491633 34.784796 42.965231                                                 
H 36.342029 34.829763 37.235329                                                 
H 36.362801 66.329533 36.621106                                                 
H 54.604229 66.472883 30.819642                                                 
H 27.315254 50.784534 29.857690                                                 
H 54.634088 34.929218 30.843909                                                 
Li 31.871023 41.371759 26.747780                                                
Li 30.381030 48.306398 33.594947                                                
Li 58.830958 59.668009 52.348845                                                
Li 36.030640 38.621089 33.355524                                                
Li 60.300112 57.733058 27.531091                                                
Li 42.720968 36.276353 33.664667                                                
Li 30.371155 57.503606 52.664744                                                
Li 35.938890 62.455557 46.049542                                                
Li 46.741329 34.074605 52.389138                                                
Li 30.124074 48.046631 46.450021                                                
Li 52.482961 38.918425 27.397190                                                
Li 35.838948 38.217613 46.180203                                                
Li 44.211810 67.044211 27.426816                                                
Li 35.244360 63.739800 33.744600                                                
%ENDBLOCK POSITIONS_ABS                                                         

--------------------------------------------------------------------------------
-------------------------------- END INPUT FILE --------------------------------
--------------------------------------------------------------------------------


 
<<<<<<<<<<<<<<<<<<<<<<<<<<<<<<<<< Full system >>>>>>>>>>>>>>>>>>>>>>>>>>>>>>>>>>
<<<<<<<<<<<<<<<<<<<<<<<<<<< PAW Dataset information >>>>>>>>>>>>>>>>>>>>>>>>>>>
File: ~/pp/paw/c_pbe_abinit.paw; rc = 1.25 bohr; shape type =  3; rshape = 1.25 bohr;
  Atomic number:  6;  ionic charge:  4.000000
    Partial Wave 1: l = 0
    Partial Wave 2: l = 0
    Partial Wave 3: l = 1
    Partial Wave 4: l = 1
  Core charge supplied for Nonlinear Core Corrections
File: ~/pp/paw/h_pbe_abinit.paw; rc = 0.90 bohr; shape type =  3; rshape = 0.90 bohr;
  Atomic number:  1;  ionic charge:  1.000000
    Partial Wave 1: l = 0
    Partial Wave 2: l = 0
File: ~/pp/paw/li_pbe_abinit.paw; rc = 1.42 bohr; shape type =  3; rshape = 1.42 bohr;
  Atomic number:  3;  ionic charge:  3.000000
    Partial Wave 1: l = 0
    Partial Wave 2: l = 0
    Partial Wave 3: l = 0
    Partial Wave 4: l = 1
    Partial Wave 5: l = 1
<<<<<<<<<<<<<<<<<<<<<<<<<<<<<<<<<<<<<<< >>>>>>>>>>>>>>>>>>>>>>>>>>>>>>>>>>>>>>>

-------------------------- Atom counting information ---------------------------
Symbol    Natoms    Nngwfs    Nprojs
  C        484      1936      3872
  H        108       108       216
  Li        14        70       126
.......   ......    ......    ......
Totals:    606      2114      4214
--------------------------------------------------------------------------------

=============================== PSINC grid sizes ===============================
                      Simulation cell:  189 x 189 x 189
                              FFT-box:  117 x 117 x 117
                                  PPD:    7 x   7 x   1
Grid space d1=  0.499927596032a0 (KE cutoff=  30.39413Eh = 827.06648eV)
Grid space d2=  0.499927596032a0 (KE cutoff=  30.39413Eh = 827.06648eV)
Grid space d3=  0.499927596032a0 (KE cutoff=  30.39413Eh = 827.06648eV)
================================================================================
  
WARNING in cell_grid_distribute:
Average of less than one 23-slab per node, so workload cannot be
equally balanced between nodes.

********************* Fourier parallelisation information **********************
       Coarse grid (whole simulation cell) dimensions:    189   189   189
          Real-space ('12') slabs/node (min max mean):      1     2     1
         Recip-space ('23') slabs/node (min max mean):      0     1     0
********************************************************************************

********************* Fourier parallelisation information **********************
       Double grid (whole simulation cell) dimensions:    378   378   378
          Real-space ('12') slabs/node (min max mean):      2     3     2
         Recip-space ('23') slabs/node (min max mean):      1     2     1
********************************************************************************

Atom SCF Calculation for C  : Z (AE atom) =   6 : Z (PS atom) =   4
Config String: 2s2 2p2
Orbitals (num,occ):  2     2.00 2.00
Orbitals   (num,l):  2        0    1
Real-space Grid (nr,dr,rmax): 1377    0.0065406977    9.0000000000
Spherical Bessel Basis (nsws,lmax,cutoff):   37    2  183.0099912382
Confining potential (l,width,scale):  0    3.0000000000  100.0000000000
Confining potential (l,width,scale):  1    3.0000000000  100.0000000000
  1         -5.4350126632   -1.2715272878    4.5135247139   -1.5681949477
  2         -5.3876836850   -1.3562195125    4.4235426751   -1.5380057521
  3         -5.3928844498   -1.3758175853    4.4021699684   -1.5318377811
  4         -5.3988962903   -1.3800385428    4.3975423583   -1.5307324410
  5         -5.4018428823   -1.3823489590    4.3950111904   -1.5301555648
  6         -5.4033571720   -1.3835805046    4.3936635548   -1.5298576834
  7         -5.4041480647   -1.3842324820    4.3929512000   -1.5297032953
  8         -5.4045641108   -1.3845769138    4.3925755232   -1.5296229456
  9         -5.4047838258   -1.3847587737    4.3923775340   -1.5295810042
 10         -5.4049001347   -1.3848548089    4.3922731819   -1.5295590658
 11         -5.4049618018   -1.3849055476    4.3922181562   -1.5295475724
 12         -5.4049945351   -1.3849323732    4.3921891206   -1.5295415432
 13         -5.4050119258   -1.3849465673    4.3921737867   -1.5295383767
 14         -5.4050211723   -1.3849540841    4.3921656816   -1.5295367119
 15         -5.4050260920   -1.3849580684    4.3921613935   -1.5295358358
 16         -5.4050287113   -1.3849601822    4.3921591228   -1.5295353742
 17         -5.4050301068   -1.3849613045    4.3921579192   -1.5295351307
 18         -5.4050308507   -1.3849619010    4.3921572806   -1.5295350022
 19         -5.4050312476   -1.3849622183    4.3921569415   -1.5295349343
 20         -5.4050314594   -1.3849623873    4.3921567612   -1.5295348984
 21         -5.4050315725   -1.3849624773    4.3921566653   -1.5295348794
 22         -5.4050316330   -1.3849625253    4.3921566143   -1.5295348693
Atom SCF converged after  22 iterations to a total energy of     -5.40503163

Atom SCF Calculation for H  : Z (AE atom) =   1 : Z (PS atom) =   1
Config String: 1s1
Orbitals (num,occ):  1     1.00
Orbitals   (num,l):  1        0
Real-space Grid (nr,dr,rmax): 1377    0.0065406977    9.0000000000
Spherical Bessel Basis (nsws,lmax,cutoff):   37    1  183.0099912382
Confining potential (l,width,scale):  0    3.0000000000  100.0000000000
  1         -0.3605254152   -0.2399954029    0.2820952946   -0.2424203210
  2         -0.4156854077   -0.2398249290    0.2871789324   -0.2464796203
  3         -0.4412552402   -0.2379720642    0.2899127187   -0.2499011370
  4         -0.4517265951   -0.2371980236    0.2908966173   -0.2514141636
  5         -0.4557775773   -0.2369735141    0.2911607883   -0.2519713623
  6         -0.4573363459   -0.2369240355    0.2912108681   -0.2521663171
  7         -0.4579443228   -0.2369187864    0.2912112833   -0.2522344454
  8         -0.4581858602   -0.2369215483    0.2912049187   -0.2522587615
  9         -0.4582834939   -0.2369242589    0.2912002081   -0.2522677042
 10         -0.4583235236   -0.2369258837    0.2911975892   -0.2522710965
 11         -0.4583401154   -0.2369267223    0.2911962825   -0.2522724192
 12         -0.4583470483   -0.2369271266    0.2911956643   -0.2522729467
 13         -0.4583499624   -0.2369273145    0.2911953803   -0.2522731607
 14         -0.4583511926   -0.2369274000    0.2911952521   -0.2522732486
 15         -0.4583517136   -0.2369274385    0.2911951948   -0.2522732850
 16         -0.4583519349   -0.2369274556    0.2911951693   -0.2522733002
 17         -0.4583520290   -0.2369274632    0.2911951581   -0.2522733066
Atom SCF converged after  17 iterations to a total energy of     -0.45835203

Atom SCF Calculation for Li : Z (AE atom) =   3 : Z (PS atom) =   3
Config String: 1s2 2s1 2p0
Orbitals (num,occ):  3     2.00 1.00 0.00
Orbitals   (num,l):  3        0    0    1
Real-space Grid (nr,dr,rmax): 1377    0.0065406977    9.0000000000
Spherical Bessel Basis (nsws,lmax,cutoff):   37    2  183.0099912382
Confining potential (l,width,scale):  0    3.0000000000  100.0000000000
Confining potential (l,width,scale):  1    3.0000000000  100.0000000000
  1         -6.0640888065   -4.6655401716    2.5388576516   -0.9989538799
  2         -6.9627542978   -4.0954079129    2.9808988108   -1.1965571426
  3         -7.2692687601   -3.8889996707    3.2029735703   -1.3193883705
  4         -7.3784440298   -3.8322099748    3.2868571989   -1.3711018151
  5         -7.4170278248   -3.8191968371    3.3144974220   -1.3911175539
  6         -7.4303549880   -3.8172386945    3.3228486489   -1.3986896266
  7         -7.4348052089   -3.8175483495    3.3251259310   -1.4015352495
  8         -7.4362242328   -3.8180607346    3.3256233205   -1.4026016384
  9         -7.4366459715   -3.8184145665    3.3256561549   -1.4029998726
 10         -7.4367560626   -3.8186169740    3.3256001574   -1.4031477379
 11         -7.4367765260   -3.8187239825    3.3255481763   -1.4032021548
 12         -7.4367751741   -3.8187782620    3.3255144587   -1.4032219192
 13         -7.4367707398   -3.8188051288    3.3254952336   -1.4032289600
 14         -7.4367680349   -3.8188156035    3.3254870176   -1.4032309087
 15         -7.4367661982   -3.8188217406    3.3254819951   -1.4032318132
 16         -7.4367650112   -3.8188253257    3.3254789583   -1.4032322224
 17         -7.4367642682   -3.8188274151    3.3254771375   -1.4032324006
 18         -7.4367638134   -3.8188286307    3.3254760529   -1.4032324736
 19         -7.4367635392   -3.8188293370    3.3254754103   -1.4032325004
 20         -7.4367633760   -3.8188297469    3.3254750310   -1.4032325080
 21         -7.4367632796   -3.8188299846    3.3254748079   -1.4032325082
Atom SCF converged after  21 iterations to a total energy of     -7.43676328

Determining parallel strategy ...
... using space-filling curve
... NGWF load balancing: max     17;  min     13;  average     15
... Projector load balancing: max     34;  min     26;  average     30
... done
Calculating Ewald energy ...
              Ewald: real-space energy =   36038.876717
        Ewald: reciprocal-space energy =   34559.741539
         Ewald: (sum_charge)**2 Energy =    2721.064417
         Ewald: (sum_charge**2) Energy =     245.623861
                          Ewald Energy =   67631.929977
======================= Empirical dispersion information =======================
Model : Grimme D2
Dispersion Correction Energy: -0.19535371E+01 Hartree
================================================================================
Basis initialisation ...... NGWF spheres initialised
... Projector spheres initialised
... NGWF tight boxes initialised
... Projector tight boxes initialised
... Tight-boxes gathered
... NGWF basis size (local,global):     272174  38962638
... PAW projector initialisation
... done

============================= Charge Augmentation ==============================
                           Aug box size:   13 x  13 x  13
================================================================================

========================== Sparse matrix information ===========================
                        Overlap matrix filling:  38.65%
                        Density kernel filling: 100.00%
              NGWF-Proj overlap matrix filling:  10.98%
                    Aug Overlap matrix filling:  42.84%
                    Hamiltonian matrix filling:  42.84%
                  NGWF diagonal matrix filling:   0.18%
                             KS matrix filling: 100.00% 
                           KSKS matrix filling: 100.00% 
================================================================================

Sparse matrix initialisation ... done
NGWF initialisation ...... done
============ Calculation of NGWF S^-1 using Hotelling algorithm ================ 
         Iteration  |  Frobenius norm and Maximum abs value    (of I-S*S_n^-1)   
               1       0.45656204E+02     0.99628721E+00
               2       0.45350020E+02     0.99259682E+00
               3       0.44780922E+02     0.98528122E+00
               4       0.43789857E+02     0.97089823E+00
               5       0.42239783E+02     0.94304018E+00
               6       0.40132563E+02     0.89046165E+00
               7       0.37568775E+02     0.79552803E+00
               8       0.34609187E+02     0.77048998E+00
               9       0.31483911E+02     0.74864995E+00
              10       0.28492026E+02     0.73572721E+00
              11       0.25378545E+02     0.71524351E+00
              12       0.21478598E+02     0.69564105E+00
              13       0.16328259E+02     0.66203033E+00
              14       0.10187240E+02     0.60547257E+00
              15       0.45845676E+01     0.51245105E+00
              16       0.13069461E+01     0.37149210E+00
              17       0.33445699E+00     0.19784992E+00
              18       0.83859344E-01     0.56879730E-01
              19       0.69476679E-02     0.47377016E-02
              20       0.48268900E-04     0.32915022E-04
              21       0.23298869E-08     0.15887718E-08
              22       0.39736540E-13     0.26645353E-14
================================================================================
Calculating core density ...
================================= Core Density =================================
               Core den box size:   21 x  21 x  21
================================================================================
 ... done
Up spin density kernel initialisation ...... done

Writing density kernel to file "14/592nano.dkn" ... done

>>> Optimising kernel for current NGWFs:

--------------------------- Ensemble-DFT optimisation --------------------------
Running ScaLAPACK on  140 processor(s).

--------------------------------------------------------------------------------
  Iter                              Commutator    Free_energy(A=E-TS)     DeltaA
#    0                          0.000956932816   -2920.63665041574268  -2.92E+03

Step                       =       0.381966011250
Energy                     =   -2920.603931886670
Entropy (-TS)              =      -0.032718529154
Free energy (A=E-TS)       =   -2920.636650415743
Est. 0K Energy 0.5*(E+A)   =   -2920.620291151206
Residual Non-orthogonality =       0.000000000000
Residual N_electrons       =       0.000000000081

Spin          Integrated_Ne            Fermi_level     Delta_Fermi_level
   1      2086.000000000325        -0.248820298530             -2.49E-01

                           Spin 1          
     Orb      H-eigenvalues     Occupancies
       1 |    -1.9089977422    1.0000000000 | 
                          ------
    1039 |    -0.2561857110    0.9109924488 | 
    1040 |    -0.2556793792    0.8971476931 | 
    1041 |    -0.2528803574    0.7828011215 | 
    1042 |    -0.2523322960    0.7519428472 | 
    1043 |    -0.2504355084    0.6248165416 | 
                 - Gap at zero temperature -
    1044 |    -0.2464166635    0.3188616931 | 
    1045 |    -0.2458340541    0.2802984974 | 
    1046 |    -0.2446100298    0.2092424498 | 
    1047 |    -0.2421445499    0.1083183327 | 
    1048 |    -0.2402411708    0.0624400158 | 
                          ------
    2114 |     0.5649301576    0.0000000000 | 

                       |  Abs_value |  Threshold | Converged
     Delta_Free_energy |   2.92E+03 |   1.00E-06 |        No
     Delta_Energy      |   2.92E+03 |   1.00E-04 |        No
     Delta_Entropy     |   3.27E-02 |   1.00E-04 |        No
     Commutator        |   9.57E-04 |   1.00E-05 |        No
     Delta_Fermi_level |   2.49E-01 |   1.00E-03 |        No

  Line search of the free energy minimum:
  Step_type        Step             Free_energy   Predicted_free_energy
.   Initial    0.000000    -2920.63665041574268
.    Trial1    0.381966    -2919.74444160862549
.    Trial2    0.145898    -2921.12818555554077
. Quadratic    0.142654    -2921.12631214600287    -2921.12843979863919
.     Cubic    0.156996    -2921.13126223019299    -2921.13100092887726

--------------------------------------------------------------------------------
  Iter                              Commutator    Free_energy(A=E-TS)     DeltaA
#    1                          0.000641788370   -2921.13126223019299  -4.95E-01

Step                       =       0.156995633125
Energy                     =   -2921.102782172798
Entropy (-TS)              =      -0.028480057849
Free energy (A=E-TS)       =   -2921.131262230193
Est. 0K Energy 0.5*(E+A)   =   -2921.117022201495
Residual Non-orthogonality =       0.000000000000
Residual N_electrons       =       0.000000000454

Spin          Integrated_Ne            Fermi_level     Delta_Fermi_level
   1      2086.000000001978        -0.229427952702              1.94E-02

                           Spin 1          
     Orb      H-eigenvalues     Occupancies
       1 |    -1.9012806740    1.0000000000 | 
                          ------
    1039 |    -0.2383190722    0.9430847908 | 
    1040 |    -0.2371415703    0.9195144361 | 
    1041 |    -0.2346419379    0.8384101873 | 
    1042 |    -0.2327762076    0.7421733388 | 
    1043 |    -0.2308450051    0.6100374847 | 
                 - Gap at zero temperature -
    1044 |    -0.2279860655    0.3880985357 | 
    1045 |    -0.2269752019    0.3155026963 | 
    1046 |    -0.2233337419    0.1273717510 | 
    1047 |    -0.2207430256    0.0605125771 | 
    1048 |    -0.2183031548    0.0289464657 | 
                          ------
    2114 |     0.5899227714    0.0000000000 | 

                       |  Abs_value |  Threshold | Converged
     Delta_Free_energy |   4.95E-01 |   1.00E-06 |        No
     Delta_Energy      |   4.99E-01 |   1.00E-04 |        No
     Delta_Entropy     |   4.24E-03 |   1.00E-04 |        No
     Commutator        |   6.42E-04 |   1.00E-05 |        No
     Delta_Fermi_level |   1.94E-02 |   1.00E-03 |        No

  Line search of the free energy minimum:
  Step_type        Step             Free_energy   Predicted_free_energy
.   Initial    0.000000    -2921.13126223019299
.    Trial1    0.156996    -2921.13781116937525
.    Trial2    0.478995    -2917.68240965103632
. Quadratic    0.079425    -2921.29869947708494    -2921.27314013862451

--------------------------------------------------------------------------------
  Iter                              Commutator    Free_energy(A=E-TS)     DeltaA
#    2                          0.000501854559   -2921.29869947708494  -1.67E-01

Step                       =       0.079425191058
Energy                     =   -2921.268607911394
Entropy (-TS)              =      -0.030091565898
Free energy (A=E-TS)       =   -2921.298699477085
Est. 0K Energy 0.5*(E+A)   =   -2921.283653694240
Residual Non-orthogonality =       0.000000000000
Residual N_electrons       =       0.000000000207

Spin          Integrated_Ne            Fermi_level     Delta_Fermi_level
   1      2086.000000000930        -0.222165037359              7.26E-03

                           Spin 1          
     Orb      H-eigenvalues     Occupancies
       1 |    -1.9056331271    1.0000000000 | 
                          ------
    1039 |    -0.2286703878    0.8863740656 | 
    1040 |    -0.2279849155    0.8626850208 | 
    1041 |    -0.2275379488    0.8450942518 | 
    1042 |    -0.2265921618    0.8018624180 | 
    1043 |    -0.2237120162    0.6197523739 | 
                 - Gap at zero temperature -
    1044 |    -0.2216202150    0.4570954498 | 
    1045 |    -0.2196660817    0.3123602680 | 
    1046 |    -0.2162740079    0.1346750754 | 
    1047 |    -0.2130215319    0.0527854126 | 
    1048 |    -0.2103610287    0.0234899747 | 
                          ------
    2114 |     0.5964561916    0.0000000000 | 

                       |  Abs_value |  Threshold | Converged
     Delta_Free_energy |   1.67E-01 |   1.00E-06 |        No
     Delta_Energy      |   1.66E-01 |   1.00E-04 |        No
     Delta_Entropy     |   1.61E-03 |   1.00E-04 |        No
     Commutator        |   5.02E-04 |   1.00E-05 |        No
     Delta_Fermi_level |   7.26E-03 |   1.00E-03 |        No

  Line search of the free energy minimum:
  Step_type        Step             Free_energy   Predicted_free_energy
.   Initial    0.000000    -2921.29869947708494
.    Trial1    0.079425    -2921.37226573184853
.    Trial2    0.431053    -2921.15382095778568
. Quadratic    0.168715    -2921.39724161205322    -2921.40088764326174

--------------------------------------------------------------------------------
[...]
 C   273 -- C   435       -0.10      5.38613
 C    20 -- C    46       -0.10      5.38613
 C    24 -- C    38       -0.10      5.38622
 C   416 -- C   476       -0.09      5.38629
 C   187 -- C   193       -0.08      5.38632
 C    96 -- C   126       -0.10      5.38634
 C   366 -- C   384       -0.10      5.38646
 C    32 -- C   118       -0.10      5.38649
 C   268 -- C   302       -0.10      5.38656
 C   444 -- C   462       -0.10      5.38656
 C    36 -- C    98       -0.10      5.38661
 C   194 -- C   276       -0.10      5.38662
 C    11 -- C   431       -0.10      5.38677
 C   250 -- C   280       -0.10      5.38695
 C    84 -- C   114       -0.10      5.38703
 C    49 -- C    59       -0.10      5.38705
 C   438 -- C   452       -0.10      5.38710
 C   105 -- C   477       -0.09      5.38714
 C    55 -- C   525       -0.10      5.38715
 C   287 -- C   301       -0.10      5.38721
 C   207 -- C   225       -0.09      5.38723
 C    34 -- C   100       -0.10      5.38725
 C   333 -- C   365       -0.10      5.38726
 C    13 -- C   347       -0.10      5.38729
 C    38 -- C   104       -0.10      5.38731
 C   216 -- C   282       -0.10      5.38732
 C   248 -- C   282       -0.10      5.38733
 C    57 -- C   379       -0.10      5.38737
 C   243 -- C   347       -0.10      5.38752
 C    85 -- C    95       -0.10      5.38754
 C   354 -- C   384       -0.10      5.38769
 C    48 -- C   126       -0.10      5.38776
 C   103 -- C   525       -0.10      5.38777
 C   226 -- C   382       -0.10      5.38778
 C   213 -- C   219       -0.10      5.38789
 C    32 -- C   102       -0.10      5.38794
 C   105 -- C   111       -0.10      5.38796
 C   193 -- C   267       -0.10      5.38806
 C   282 -- C   358       -0.10      5.38818
 C    33 -- C    43       -0.10      5.38847
 C    76 -- C   564       -0.10      5.38848
 C   182 -- C   220       -0.09      5.38850
 C     1 -- C   277       -0.10      5.38853
 C   266 -- C   296       -0.10      5.38864
 C   210 -- C   280       -0.10      5.38866
 C   213 -- C   345       -0.10      5.38882
 C   222 -- C   300       -0.10      5.38886
 C   285 -- C   407       -0.10      5.38913
 C     5 -- C   375       -0.10      5.38918
 C   306 -- C   354       -0.10      5.38926
 C   289 -- C   455       -0.10      5.38927
 C   409 -- C   485       -0.08      5.38940
 C    84 -- C   567       -0.10      5.38940
 C   440 -- C   488       -0.09      5.38945
 C     9 -- C   245       -0.10      5.38948
 C   277 -- C   373       -0.10      5.38957
 C    92 -- C   564       -0.09      5.38958
 C    99 -- C   121       -0.09      5.38966
 C   436 -- C   482       -0.10      5.38972
 C     5 -- C    59       -0.10      5.38977
 C   447 -- C   457       -0.10      5.39004
 C   297 -- C   303       -0.10      5.39007
 C    88 -- C   118       -0.10      5.39008
 C   192 -- C   290       -0.09      5.39035
 C   243 -- C   269       -0.09      5.39037
 C   272 -- C   306       -0.10      5.39045
 C   214 -- C   378       -0.09      5.39049
 C    51 -- C    57       -0.10      5.39050
 C   379 -- C   389       -0.08      5.39072
 C   272 -- C   462       -0.09      5.39084
 C   385 -- C   395       -0.09      5.39103
 C   358 -- C   388       -0.10      5.39134
 C   266 -- C   422       -0.09      5.39164
 C   274 -- C   460       -0.09      5.39167
 C   364 -- C   390       -0.09      5.39180
 C   275 -- C   375       -0.10      5.39185
 C   214 -- C   276       -0.10      5.39191
 C   330 -- C   382       -0.09      5.39199
 C   351 -- C   361       -0.09      5.39229
 C   409 -- C   455       -0.09      5.39230
 C   197 -- C   295       -0.09      5.39243
 C   368 -- C   394       -0.09      5.39254
 C    35 -- C    41       -0.10      5.39256
 C   178 -- C   264       -0.09      5.39271
 C   266 -- C   452       -0.09      5.39275
 C   190 -- C   300       -0.09      5.39284
 C    40 -- C    54       -0.10      5.39285
 C   257 -- C   267       -0.10      5.39294
 H   426 -- Li  600       -0.03      5.39333
 C   301 -- C   447       -0.10      5.39338
 C    40 -- C   102       -0.09      5.39341
 C   215 -- C   225       -0.10      5.39353
 C   222 -- C   374       -0.09      5.39357
 C    82 -- C   492       -0.10      5.39358
 C    77 -- C    91       -0.09      5.39383
 C    15 -- C    89       -0.10      5.39412
 C     3 -- C   109       -0.09      5.39424
 C   275 -- C   301       -0.09      5.39425
 C   265 -- C   443       -0.09      5.39426
 C   201 -- C   303       -0.09      5.39443
 C    11 -- C    77       -0.10      5.39449
 C   293 -- C   421       -0.10      5.39450
 C   315 -- C   349       -0.09      5.39457
 C   256 -- C   290       -0.09      5.39486
 C   277 -- C   299       -0.09      5.39497
 C   227 -- C   237       -0.09      5.39504
 C   194 -- C   288       -0.09      5.39526
 C   345 -- C   351       -0.09      5.39533
 C   226 -- C   304       -0.10      5.39533
 C    81 -- C    87       -0.09      5.39557
 C    79 -- C    89       -0.09      5.39577
 C   461 -- C   479       -0.09      5.39583
 C   446 -- C   460       -0.10      5.39607
 C   408 -- C   416       -0.09      5.39656
 C   375 -- C   377       -0.09      5.39669
 C   431 -- C   441       -0.10      5.39673
 C    36 -- C    50       -0.09      5.39677
 C    74 -- C   488       -0.10      5.39681
 C    53 -- C   395       -0.09      5.39722
 C   481 -- C   489       -0.09      5.39726
 C   260 -- C   294       -0.09      5.39731
 C   209 -- C   223       -0.09      5.39740
 C   272 -- C   294       -0.10      5.39756
 C   262 -- C   460       -0.09      5.39782
 C   373 -- C   379       -0.10      5.39795
 C   206 -- C   304       -0.09      5.39813
 C    69 -- C    95       -0.09      5.39813
 C    66 -- C   100       -0.09      5.39838
 C   221 -- C   243       -0.09      5.39849
 C   210 -- C   296       -0.09      5.39870
 C   208 -- C   298       -0.09      5.40019
 C   289 -- C   299       -0.09      5.40030
 C   316 -- C   374       -0.09      5.40056
 C   211 -- C   221       -0.09      5.40097
 C   254 -- C   284       -0.09      5.40180
 C   327 -- C   333       -0.09      5.40193
 C   191 -- C   221       -0.09      5.40475
 C   233 -- C   239       -0.09      5.40480
 C   202 -- C   208       -0.09      5.40490
 C   211 -- C   315       -0.09      5.40506
 C   349 -- C   363       -0.09      5.40517
 C   229 -- C   373       -0.09      5.40590
 C   264 -- C   424       -0.09      5.40599
 C   427 -- C   445       -0.08      5.40643
 C    49 -- C   391       -0.09      5.40753
 C   185 -- C   299       -0.09      5.40809
 C   237 -- C   275       -0.09      5.40891
 C   339 -- C   497       -0.09      5.40906
 C   420 -- C   444       -0.08      5.40928
 C   212 -- C   230       -0.08      5.41013
 C   199 -- C   241       -0.08      5.41106
 C   188 -- C   286       -0.08      5.41112
 C    94 -- C   128       -0.09      5.41113
 C   470 -- C   547       -0.09      5.41122
 C   213 -- C   313       -0.09      5.41166
 C    99 -- C   521       -0.09      5.41182
 C   218 -- C   386       -0.09      5.41197
 C   253 -- C   413       -0.10      5.41208
 C   330 -- C   394       -0.09      5.41256
 C    96 -- C   567       -0.09      5.41276
 C    97 -- C   123       -0.09      5.41302
 C   143 -- C   219       -0.07      5.41325
 C   477 -- C   485       -0.09      5.41331
 C   198 -- C   204       -0.10      5.41419
 C   205 -- C   263       -0.09      5.41434
 C   313 -- C   319       -0.09      5.41452
 C   285 -- C   287       -0.08      5.41462
 C   444 -- C   492       -0.09      5.41557
 C   186 -- C   192       -0.09      5.41557
 C    56 -- C   342       -0.09      5.41583
 C   107 -- C   475       -0.09      5.41601
 C   293 -- C   295       -0.09      5.41647
 C   181 -- C   287       -0.08      5.41736
 C   252 -- C   406       -0.10      5.41885
 C   343 -- C   506       -0.09      5.41898
 C    83 -- C   467       -0.09      5.41900
 C   242 -- C   328       -0.09      5.41901
 C   204 -- C   294       -0.08      5.41944
 C    73 -- C    79       -0.09      5.41958
 C    52 -- C   338       -0.09      5.41958
 C   224 -- C   242       -0.08      5.42049
 C    70 -- C   104       -0.09      5.42052
 C   466 -- C   538       -0.09      5.42053
 C   186 -- C   212       -0.08      5.42110
 C    71 -- C   516       -0.09      5.42147
 C    68 -- C   556       -0.09      5.42213
 C    65 -- C    91       -0.09      5.42241
 C   230 -- C   318       -0.09      5.42303
 C   193 -- C   219       -0.09      5.42316
 C   205 -- C   207       -0.09      5.42316
 C   182 -- C   188       -0.09      5.42375
 C   197 -- C   199       -0.09      5.42443
 C   231 -- C   323       -0.09      5.42554
 C   202 -- C   216       -0.08      5.42575
 C   262 -- C   292       -0.09      5.42655
 C   220 -- C   238       -0.08      5.42737
 C   189 -- C   255       -0.08      5.42770
 C   430 -- C   480       -0.08      5.42959
 C   261 -- C   427       -0.09      5.43120
 H   591 -- Li  594       -0.03      5.43206
 H   588 -- Li  596       -0.03      5.43360
 C   423 -- C   489       -0.08      5.43451
 C   190 -- C   284       -0.08      5.43506
 C   238 -- C   314       -0.08      5.43752
 C   201 -- C   239       -0.08      5.43761
 C   229 -- C   235       -0.09      5.43837
 C   227 -- C   309       -0.08      5.44428
 C   183 -- C   237       -0.07      5.44535
 C   422 -- C   430       -0.08      5.44835
 C   189 -- C   191       -0.08      5.44854
 C   206 -- C   292       -0.08      5.44922
 C   377 -- C   391       -0.08      5.45008
 C   319 -- C   361       -0.08      5.45069
 C   185 -- C   235       -0.07      5.47049
 C    75 -- C   463       -0.08      5.48311
 C    67 -- C   511       -0.07      5.48768
 C   234 -- C   332       -0.07      5.48859
 C    72 -- C   560       -0.07      5.48928
 C   260 -- C   420       -0.08      5.49087
 C   181 -- C   183       -0.08      5.50306
 H   141 -- Li  596       -0.02      5.51501
 H   147 -- Li  604       -0.01      5.59993
 H   142 -- Li  596       -0.02      5.60282
 C   134 -- Li  598       -0.07      5.61571
 C   236 -- C   239       -0.04      5.62157
 C   242 -- Li  604       -0.06      5.64659
 H   159 -- Li  602       -0.01      5.64758
==================================================


=================== Orbital energy and occupancy information ===================

      Total number of orbitals:    2114
        Occupancy sum (kernel):    1043.000000001
   Occupancy sum (eigenvalues):    1043.000000001
                 HOMO-LUMO gap:       0.001360998 Eh
                 Mid-gap level:      -0.078391007 Eh

                        Orbital | Energy (Eh) | Occupancy
                            1    -1.891345904   1.0000000
                        .......   ...........   .........
                         1035    -0.116559841   0.9999903
                         1036    -0.114273484   0.9999801
                         1037    -0.101739215   0.9989688
                         1038    -0.089708312   0.9559990
                         1039    -0.086502997   0.8869859
                         1040    -0.085555118   0.8531424
                         1041    -0.084646039   0.8135755
                         1042    -0.083294003   0.7403960
                         1043    -0.082579733   0.6942935
                         1044    -0.079071506   0.4278719
                        ....... -- gap at 0K -- .........
                         1045    -0.077710508   0.3274340
                         1046    -0.074382209   0.1454507
                         1047    -0.071831442   0.0704456
                         1048    -0.069761996   0.0375018
                         1049    -0.066181811   0.0124250
                         1050    -0.065758795   0.0108825
                         1051    -0.064816611   0.0081529
                         1052    -0.063963174   0.0062719
                         1053    -0.062953835   0.0045264
                         1054    -0.060451398   0.0020562
                        .......   ...........   .........
                         2114     0.793221592   0.0000000

================================================================================

===================== Writing canonical molecular orbitals =====================
| Orbital  Energy (eV)  Norm     |
| HOMO     -2.15164515  1.000000 | Writing "14/592nano_HOMO.cube" ... done
Writing "14/592nano_HOMO.dx" ... done
| LUMO     -2.11461052  1.000000 | Writing "14/592nano_LUMO.cube" ... done
Writing "14/592nano_LUMO.dx" ... done
================================================================================
 
===================== Density of States (DOS) calculation ======================
Writing "14/592nano_DOS.txt" ...  done
================================================================================
 
Writing bands to file "14/592nano.val_bands" ... done
 
================ Projected Density of States (pDOS) calculation ================
 
Constructing AM resolved functions  ...... done
Writing NGWF plot files in formats: CUBE DX ...  done
 
Performing overlap integrals ...  done
 
Computing pDOS weights ...  done
 
All bands spilling parameter =   3.96 %
Occupancy-weighted spilling parameter =   0.94 %
 
 => Outputting data for OptaDOS <=
 
Writing pDOS weights to file "14/592nano.val_pdos_bin" ... done
 
Writing band gradients to file "14/592nano.val_dome_bin" ... done
 
Writing Castep output cell file to "14/592nano-out.cell" ... done
 
 => Computing Gaussian smeared pDOS <= 
Writing "14/592nano_PDOS.txt" ...  done
 
 => Computing Occupancy-weighted Gaussian smeared pDOS <= 
Writing "14/592nano_occ_PDOS.txt" ...  done
  => Band centres: 
 S band centre of group 1:  -15.657687 eV
 P band centre of group 1:   -7.851306 eV
  Band centres done. <=
  => Integrated number of electrons in each AM band: 
 S num electrons of group 1:  558.486097
 P num electrons of group 1: 1507.905679
  Integrated number of electrons done. <=
================================================================================

------------------------------ TIMING INFORMATION ------------------------------
AVERAGE TIME:    9449.373s on    140 node(s)                                    
TOTAL TIME:      9449.374s on    140 node(s)                                    
================= AVERAGE TIMINGS FROM ALL NODES (CUMULATIVE) ==================
|| TAG                                    #calls    cpu time   %total  Gflops ||
|| work_imbalance                       :     1        0.00s   0.000%  ------ ||
|| sparse_set_to_garbage                :   171        0.01s   0.000%  ------ ||
|| paw_sphere_density_on_grid           :     1        0.01s   0.000%  ------ ||
|| paw_tcore_density                    :     1        0.01s   0.000%  ------ ||
|| basis_extract_function_from_box      :   453        0.02s   0.000%  ------ ||
|| paw_dij_hartree                      :   931        0.03s   0.000%  ------ ||
|| ngwfs_initialise_from_radial         :     2        0.04s   0.000%  ------ ||
|| ewald_calculate_energy               :     1        0.12s   0.001%  ------ ||
|| density_init_guess_real              :     1        0.15s   0.002%  ------ ||
|| paw_dataset_init                     :     3        0.33s   0.004%  ------ ||
|| paw_tcore_hartree_on_grid            :     1        0.37s   0.004%  ------ ||
|| pseudo_make_structure_factor         :     1        0.46s   0.005%  ------ ||
|| restart_kernel_write                 :    16        0.88s   0.009%  ------ ||
|| sparse_init                          :     1        0.88s   0.009%  ------ ||
|| dense_normal_eigensolve              :     1        0.98s   0.010%  ------ ||
|| paw_species_calc_proj_prec_mat       :     1        1.88s   0.020%  ------ ||
|| ngwf_gradient_coeffs                 :    15        6.97s   0.074%  ------ ||
|| sparse_embed_hotelling_invert_embed  :    29        7.17s   0.076%  ------ ||
|| sw_init                              :     1        7.51s   0.079%  ------ ||
|| fourier_apply_box_pair               :   678        7.92s   0.084%  1.980k ||
|| augmentation_screen_dij              :   698       14.02s   0.148%  ------ ||
|| basis_copy_function_to_box           : 14647       15.83s   0.168%  ------ ||
|| paw_dij_xc                           :   931       25.00s   0.265%  ------ ||
|| projectors_init_fftbox_recip         :    91       28.76s   0.304%  ------ ||
|| hartree_on_grid                      :   693       33.52s   0.355%  ------ ||
|| eigenstates_pdos                     :     1       41.70s   0.441%  ------ ||
|| projectors_func_ovlp_box             :    30       46.93s   0.497%  ------ ||
|| integrals_kinetic                    :    29       47.15s   0.499%  ------ ||
|| function_ops_brappd_ketppd           :    60       50.36s   0.533%  ------ ||
|| hamiltonian_energy_components        :     3       55.34s   0.586%  ------ ||
|| aug_nonlocal_mat                     :   916       58.86s   0.623%  ------ ||
|| augmentation_density_on_grid         :   693       62.58s   0.662%  ------ ||
|| sparse_trace                         :  8678       63.62s   0.673%  ------ ||
|| fourier_apply_cell_forward           :  3461       73.52s   0.778% 163.847 ||
|| fourier_apply_cell_backward          :  3462       75.57s   0.800% 159.460 ||
|| eigenstates_calculate                :     1       80.72s   0.854%  ------ ||
|| basis_dot_function_with_box          : 3.251M      89.32s   0.945%  ------ ||
|| restart_ngwfs_tightbox_output        :    14      119.33s   1.263%  ------ ||
|| xc_energy_potential                  :   692      132.71s   1.404%  ------ ||
|| dense_eigensolve                     :   660      225.01s   2.381%  ------ ||
|| sparse_product                       :  7722      228.89s   2.422%  ------ ||
|| basis_add_function_to_box            : 9.291M     246.94s   2.613%  ------ ||
|| cell_grid_extract_box_real           :  7933      339.40s   3.592%  ------ ||
|| projectors_gradient_batch            :    30      353.03s   3.736%  ------ ||
|| integrals_locpot_mat_els_batch       :   464      415.05s   4.392%  ------ ||
|| cell_grid_deposit_box_real           : 25690      419.24s   4.437%  ------ ||
|| projectors_grad_precond_batch        :    30      504.53s   5.339%  ------ ||
|| edft_diag_ngwf_ham                   :   659      642.22s   6.796%  ------ ||
|| properties_calculate                 :     1      725.68s   7.680%  ------ ||
|| density_fftbox_deposit_to_cell       : 11781      743.07s   7.864%  ------ ||
|| ngwf_gradient_build_batch            :    30      952.42s  10.079%  ------ ||
|| density_batch_row_sums               :  1386      956.42s  10.121%  ------ ||
|| potential_apply_to_ngwf_batch        :   464     1012.44s  10.714%  ------ ||
|| ngwf_gradient_batch                  :    30     1037.06s  10.975%  ------ ||
|| fourier_apply_box                    : 46337     1097.75s  11.617%  3.155k ||
|| edft_apply_smearing_operator         :   659     1165.18s  12.331%  ------ ||
|| density_fftbox_interpolate_multiply  : 11781     1226.32s  12.978%  ------ ||
|| ngwf_gradient_lnv                    :    15     1371.66s  14.516%  ------ ||
|| integrals_locpot_dbl_grid            :   232     1434.78s  15.184%  ------ ||
|| density_batch_interp_deposit         :  1386     2615.23s  27.676%  ------ ||
|| density_on_dbl_grid                  :   693     3719.27s  39.360%  ------ ||
|| hamiltonian_lhxc_calculate           :   688     4025.93s  42.605%  ------ ||
|| edft_calculate                       :    15     6721.76s  71.134%  ------ ||
|| ngwf_cg_optimise                     :     1     8707.83s  92.152%  ------ ||
|| total_time                           :     1     9449.37s 100.000%  ------ ||
================================================================================
Overhead of generating timer report: 
- 0 ms averaging over threads,
- 21 ms ensuring consistency across MPI ranks,
- 0 ms printing in order.

Job completed: 08-06-2020 08:04 (+0100)

