 +---------------------------------------------------------------+
 |                                                               |
 |        ####### #     # ####### ####### ####### ######         |
 |        #     # ##    # #          #    #       #     #        |
 |        #     # # #   # #          #    #       #     #        |
 |        #     # #  #  # #####      #    #####   ######         |
 |        #     # #   # # #          #    #       #              |
 |        #     # #    ## #          #    #       #              |
 |        ####### #     # #######    #    ####### #              |
 |                                                               |
 |        Linear-Scaling Ab Initio Total Energy Program          |
 |                                                               |
 |          Release for academic collaborators of ODG            |
 |                                             Version 5.3.2.12  |
 |                                                               |
 +---------------------------------------------------------------+
 |                                                               |
 |  Authors:                                                     |
 |  Jacek Dziedzic, Peter D. Haynes, Nicholas D. M. Hine,        |
 |  Arash. A. Mostofi, Mike C. Payne and Chris-Kriton Skylaris   |
 |                                                               |
 |  Contributors:                                                |
 |  J. Aarons, L. Andrinopoulos, P. W. Avraam, R. A. Bell,       |
 |  A. Bhandari, G. A. Bramley, R. J. Charlton, S. J. Clark,     |
 |  R. J. Clements, G. C. Constantinescu, F. Corsetti,           |
 |  N. Corsini, O. Dieguez, S. M. M. Dubois, K. K. B. Duff,      |
 |  J. M. Escartin, A. Greco, H. Helal, Q. O. Hill, L. P. Lee,   |
 |  J.-H. Li, E. B. Linscott, G. Moynihan, D. D. O`Regan,        |
 |  O. K. Okan, M. J. S. Phipps, C. J. Pickard,                  |
 |  J. C. A. Prentice, M. I. J. Probert, L. E. Ratcliff,         |
 |  M. Robinson, A. Ruiz Serrano, J. S. Spencer, E. W. Tait,     |
 |  G. Teobaldi, D. Turban, V. Vitale, K. A. Wilkinson,          |
 |  C. Weber, J. C. Womack, N. Yeung and T. J. Zuehlsdorff       |
 |                                                               |
 |                                   Copyright (c) 2004-2020     |
 |                                                               |
 |  Please cite:                                                 |
 |  "Introducing ONETEP: Linear-scaling density functional       |
 |   simulations on parallel computers".                         |
 |   C.-K. Skylaris, P. D. Haynes, A. A. Mostofi, M. C. Payne.   |
 |   J. Chem. Phys. 122 084119 (2005).                           |
 |                                                               |
 |          in all publications arising from your use of ONETEP. |
 |                                                               |
 +---------------------------------------------------------------+
 |                                                               |
 |   ONETEP is based on developments described in the following  |
 |   publications:                                               |
 |                                                               |
 |  "Nonorthogonal generalized Wannier function pseudopotential  |
 |   plane-wave method".                                         |
 |   C.-K. Skylaris, A. A. Mostofi, P. D. Haynes, O. Dieguez,    |
 |   M. C. Payne.                                                |
 |   Phys. Rev. B 66 035119 (2002).                              |
 |                                                               |
 |  "Preconditioned iterative minimization for linear-scaling    |
 |   electronic structure calculations".                         |
 |   A. A. Mostofi, P. D. Haynes, C.-K. Skylaris, M. C. Payne.   |
 |   J. Chem. Phys. 119(17), pp.8842-8848 (2003).                |
 |                                                               |
 |  "Total-energy calculations on a real space grid with         |
 |   localized functions and a plane-wave basis".                |
 |   A. A. Mostofi, C.-K. Skylaris, P. D. Haynes, M. C. Payne.   |
 |   Comput. Phys. Commun. 147, pp.788-802 (2002).               |
 |                                                               |
 |  "Accurate kinetic energy evaluation in electronic structure  |
 |   calculations with localized functions on real space grids"  |
 |   C.-K. Skylaris, A. A. Mostofi, P. D. Haynes, C. J. Pickard, |
 |   M. C. Payne.                                                |
 |   Comput. Phys. Commun. 140, pp.315-322 (2001).               |
 |                                                               |
 |  "Accurate ionic forces and geometry optimization in linear-  |
 |   scaling density-functional theory with local orbitals"      |
 |   N. D. M. Hine, M. Robinson, P. D. Haynes, C.-K. Skylaris,   |
 |   M. C. Payne, and A. A. Mostofi.                             |
 |   Phys. Rev. B 83 195102 (2011).                              |
 |                                                               |
 +---------------------------------------------------------------+

Job started: 19-05-2020 09:42 (+0100)
 
Reading parameters from file "8/592nano.dat" ...... done

If your calculation crashes here, before "Checking processes and threads..."
is displayed, then your stack size is insufficient.
If so, use "ulimit -s unlimited" at runtime.
You can disable this check with "check_stack_size F".

Checking processes and threads...
   Determining the default number of threads...
      No default threads set at compilation time: defaulting to 1.
      OpenMP library call suggests 4 threads.
      Hybrid MPI-OpenMP compilation detected.
      Number of MPI processes > 1.
      OMP_NUM_THREADS environment variable present and
      its value matches the one obtained from the OpenMP library call.
      Using this value as default.
      Default threads: 4
      Default applies to threads_max and threads_num_fftboxes.
      Settings in the input file override this default.
   ... done

   Running with 140 MPI processes.
   There are 10 MPI processes running on the same node as the root process.
   Each MPI process is using: 
               1 threads for simulation cell FFTs.
               1 threads for parallel FFT box operations.
               4 threads for loops over batched FFT box operations.
               4 threads in other parallel regions.
... done

Basic input checks...
Resetting ngwf_cg_rotate to TRUE for EDFT calculations
... done

Reading geometry and species blocks from file "8/592nano.dat" ...    
  Number of PPD points along a3 set to 1.  This is 
  the default value, it may have been provided also in the input file.
... done
 Writing xyz coordinates to file "8/592nano.xyz" ... done


--------------------------------------------------------------------------------
---------------------------------- INPUT FILE ----------------------------------
--------------------------------------------------------------------------------

task : singlepoint                                                              
do_properties : true                                                            
dx_format T                                                                     
edft T                                                                          
output_detail VERBOSE                                                           
write_xyz T                                                                     
dispersion 4                                                                    
xc_functional PBE                                                               
cutoff_energy 830 eV                                                            
paw T                                                                           
geom_disp_tol 0.015 bohr                                                        
geom_energy_tol 1.5E-6 hartree                                                  
geom_force_tol 0.003 "ha/bohr"                                                  
EDFT_MAXIT 30                                                                   
pdos_max_l = 2                                                                  
dos_smear  0.1 eV                                                               
popn_calculate T                                                                
PDOS_PSEUDOATOMIC T                                                             
PDOS_REDUCE_SWS F                                                               
PDOS_CONSTRUCT_BASIS F                                                          
PDOS_LOWDIN T                                                                   
PDOS_ORTH_ATOM_BLOCKS F                                                         
PDOS_LCAO_OPTIMIZE F                                                            
pdos_optados_output T                                                           
homo_plot 0                                                                     
lumo_plot 0                                                                     
homo_dens_plot -1                                                               
lumo_dens_plot -1                                                               
%BLOCK SPECIES                                                                  
C C 6 4 9.0                                                                     
H H 1 1 9.0                                                                     
Li Li 3 5 9.0                                                                   
%ENDBLOCK SPECIES                                                               
%BLOCK SPECIES_POT                                                              
C "~/pp/paw/c_pbe_abinit.paw"                                                   
H "~/pp/paw/h_pbe_abinit.paw"                                                   
Li "~/pp/paw/li_pbe_abinit.paw"                                                 
%ENDBLOCK SPECIES_POT                                                           
%BLOCK SPECIES_ATOMIC_SET                                                       
C "SOLVE conf=2s2 2p2"                                                          
H "SOLVE conf=1s1"                                                              
Li "SOLVE conf=1s2 2s1 2p0"                                                     
%ENDBLOCK SPECIES_ATOMIC_SET                                                    
%BLOCK LATTICE_CART                                                             
94.486315650000      0.000000000000       0.000000000000                        
0.000000000000       94.486315650000      0.000000000000                        
0.000000000000       0.000000000000       94.486315650000                       
%ENDBLOCK LATTICE_CART                                                          
%BLOCK POSITIONS_ABS                                                            
C 45.481549 50.692445 30.719404                                                 
C 45.425429 50.602306 36.818590                                                 
C 46.828085 53.020536 30.709889                                                 
C 48.112886 50.603520 36.817581                                                 
C 49.520913 48.365518 30.706782                                                 
C 49.456997 48.277592 36.816490                                                 
C 50.863613 50.690755 30.692627                                                 
C 52.145133 48.280027 36.815599                                                 
C 45.484554 55.352311 30.711227                                                 
C 45.430956 55.258195 36.829689                                                 
C 46.830595 57.679829 30.701933                                                 
C 48.115777 55.258723 36.833963                                                 
C 49.516620 53.019114 30.695258                                                 
C 49.456485 52.931210 36.826746                                                 
C 50.862165 55.351352 30.686803                                                 
C 52.143738 52.932272 36.830543                                                 
C 45.401406 50.502293 42.953239                                                 
C 45.373449 50.421269 49.094119                                                 
C 46.744690 52.828109 42.959254                                                 
C 48.063299 50.419158 49.102184                                                 
C 49.431386 48.175933 42.953417                                                 
C 49.408122 48.089445 49.101290                                                 
C 50.775240 50.501705 42.960813                                                 
C 52.097298 48.085274 49.111574                                                 
C 45.401503 55.154377 42.963352                                                 
C 45.372785 55.078845 49.110432                                                 
C 46.745854 57.481293 42.973312                                                 
C 48.061211 55.075313 49.116062                                                 
C 49.431760 52.827704 42.964580                                                 
C 49.406373 52.745116 49.110149                                                 
C 50.775227 55.155238 42.972646                                                 
C 52.098529 52.739126 49.114071                                                 
C 57.602383 48.356982 30.654123                                                 
C 57.520369 48.283502 36.823855                                                 
C 58.944972 50.678841 30.665948                                                 
C 60.236619 48.289728 36.830585                                                 
C 57.500475 48.175033 42.962474                                                 
C 57.478345 48.066848 49.118258                                                 
C 58.842122 50.499699 42.961040                                                 
C 60.197082 48.062519 49.104969                                                 
C 53.557408 50.688504 30.677723                                                 
C 53.485274 50.606818 36.824210                                                 
C 54.899274 53.015801 30.685133                                                 
C 56.180479 50.609537 36.827851                                                 
C 53.463241 50.501295 42.964268                                                 
C 53.442790 50.411454 49.114422                                                 
C 54.806333 52.828082 42.967588                                                 
C 56.140294 50.402688 49.116929                                                 
C 57.610456 43.710013 30.677013                                                 
C 57.523482 43.623677 36.817969                                                 
C 58.945785 46.019769 30.649302                                                 
C 60.241429 43.645991 36.825102                                                 
C 57.498774 43.528351 42.955205                                                 
C 57.469199 43.407444 49.111747                                                 
C 58.838721 45.843105 42.959000                                                 
C 60.185692 43.417495 49.098901                                                 
C 53.562258 46.034650 30.690937                                                 
C 53.490848 45.951341 36.815141                                                 
C 54.905536 48.361281 30.671375                                                 
C 56.183850 45.956268 36.817058                                                 
C 53.463433 45.851092 42.956004                                                 
C 53.438950 45.752434 49.110582                                                 
C 54.806028 48.174017 42.961944                                                 
C 56.135108 45.746311 49.117990                                                 
C 57.589007 57.674504 30.807846                                                 
C 57.514396 57.599297 36.865088                                                 
C 58.932303 60.063225 30.868045                                                 
C 60.232237 57.583235 36.884676                                                 
C 57.500725 57.473519 42.961690                                                 
C 57.476850 57.394400 49.020335                                                 
C 58.843861 59.835971 42.954567                                                 
C 60.218859 57.360571 48.985933                                                 
C 45.481129 64.673434 30.716963                                                 
C 45.448098 64.571233 36.877839                                                 
C 46.853573 67.017184 30.736246                                                 
C 48.120258 64.572307 36.888167                                                 
C 49.515607 62.344998 30.707006                                                 
C 49.467433 62.246454 36.871218                                                 
C 50.875948 64.697313 30.726685                                                 
C 52.149602 62.245466 36.879231                                                 
C 45.391516 64.463341 42.983839                                                 
C 45.380949 64.400752 49.150461                                                 
C 46.763993 66.807871 42.992130                                                 
C 48.056679 64.400031 49.173204                                                 
C 49.429651 62.135982 42.992414                                                 
C 49.409326 62.070721 49.159667                                                 
C 50.790466 64.487410 42.997595                                                 
C 52.094029 62.070627 49.150884                                                 
C 53.551298 60.015741 30.719926                                                 
C 53.491200 59.921575 36.863273                                                 
C 54.905534 62.383871 30.748691                                                 
C 56.179000 59.916725 36.872756                                                 
C 53.464870 59.807650 42.982307                                                 
C 53.431051 59.738949 49.109866                                                 
C 54.819460 62.163654 42.980890                                                 
C 56.130665 59.730708 49.043247                                                 
C 57.593391 53.001028 30.700791                                                 
C 57.517669 52.938644 36.839108                                                 
C 58.938075 55.341090 30.786688                                                 
C 60.234624 52.936511 36.849847                                                 
C 57.501117 52.825329 42.963473                                                 
C 57.483478 52.727113 49.096264                                                 
C 58.840525 55.156718 42.958825                                                 
C 60.211778 52.710991 49.078745                                                 
C 45.485983 60.011594 30.708513                                                 
C 45.437933 59.913757 36.847389                                                 
C 46.834282 62.346279 30.707557                                                 
C 48.119458 59.913760 36.852101                                                 
C 49.520158 57.679567 30.694048                                                 
C 49.460230 57.586531 36.844699                                                 
C 50.865531 60.017046 30.698184                                                 
C 52.146320 57.587055 36.846832                                                 
C 45.399246 59.807665 42.976808                                                 
C 45.372882 59.737708 49.133279                                                 
C 46.746114 62.139149 42.986568                                                 
C 48.061108 59.734842 49.141043                                                 
C 49.431639 57.480107 42.977334                                                 
C 49.405399 57.405260 49.125657                                                 
C 50.778315 59.813406 42.986690                                                 
C 52.095841 57.400723 49.113965                                                 
C 53.552109 55.348444 30.696878                                                 
C 53.485910 55.263234 36.840219                                                 
C 54.888219 57.686002 30.727295                                                 
C 56.178818 55.263888 36.844808                                                 
C 53.463993 55.151824 42.971499                                                 
C 53.441776 55.068121 49.102959                                                 
C 54.809687 57.484849 42.973214                                                 
C 56.135889 55.051641 49.083865                                                 
H 27.287259 41.353165 30.640738                                                 
H 28.247390 39.564692 37.011747                                                 
H 27.242547 41.158951 43.000415                                                 
H 28.203265 39.333008 49.022159                                                 
H 41.861829 30.289629 30.180488                                                 
C 42.916773 32.067458 30.129950                                                 
H 44.492498 30.186163 37.147199                                                 
H 41.713334 30.100423 42.987097                                                 
C 42.762322 31.883483 43.025192                                                 
H 44.383531 30.005823 49.004067                                                 
H 29.626043 37.280740 30.478767                                                 
C 30.663284 39.064902 30.383155                                                 
H 32.281567 37.219422 37.300534                                                 
H 33.733696 34.880172 29.946210                                                 
C 34.754891 36.675258 29.979797                                                 
H 29.575399 37.107211 42.967877                                                 
C 30.596782 38.905776 43.020587                                                 
H 32.243016 37.017545 49.007440                                                 
H 33.621615 34.777260 43.038957                                                 
C 34.657041 36.570270 43.076460                                                 
H 37.841940 32.583349 29.798843                                                 
C 38.853562 34.387616 29.804069                                                 
H 40.450008 32.531804 37.686984                                                 
H 37.677723 32.436213 43.066173                                                 
C 38.710749 34.230729 43.099655                                                 
H 40.350163 32.346622 48.999398                                                 
H 46.502594 30.307732 30.746961                                                 
H 46.390518 30.108954 42.898954                                                 
H 25.890571 48.300958 37.347085                                                 
C 27.958193 48.303079 37.304098                                                 
H 25.841318 48.039418 49.160215                                                 
C 27.911838 48.046525 49.198441                                                 
H 25.897215 43.603675 37.144664                                                 
H 27.256975 46.070941 30.121799                                                 
C 27.965491 43.596299 37.127396                                                 
H 25.849451 43.372287 49.087253                                                 
H 27.245963 45.816771 43.118020                                                 
C 27.917687 43.363355 49.125175                                                 
H 25.927533 57.663323 36.955122                                                 
H 27.326353 60.084308 30.731901                                                 
C 27.995610 57.672077 36.933245                                                 
H 25.841020 57.415970 48.762635                                                 
H 27.240146 59.847746 42.946242                                                 
C 27.900066 57.427441 48.925865                                                 
H 25.911778 53.014250 37.224261                                                 
H 27.321992 55.431676 30.448144                                                 
C 27.980540 53.002079 37.164102                                                 
H 25.830168 52.726646 49.104707                                                 
H 27.243662 55.185246 43.052507                                                 
C 27.897970 52.721228 49.160178                                                 
C 29.345999 41.360024 30.474318                                                 
C 29.267848 41.361680 37.051090                                                 
C 30.611141 43.739608 30.324867                                                 
C 31.969385 41.283570 37.090014                                                 
C 33.351080 38.969168 30.162506                                                 
C 33.322077 39.004671 37.200081                                                 
C 34.704548 41.370280 30.226955                                                 
C 35.993841 38.940972 37.364471                                                 
C 29.325532 46.072511 30.140994                                                 
C 29.250506 45.973884 37.237661                                                 
C 30.631772 48.415156 29.982227                                                 
C 31.973994 45.953634 37.145976                                                 
C 33.357479 43.707492 30.305598                                                 
C 33.312950 43.629235 37.081959                                                 
C 34.711315 46.056951 30.323781                                                 
C 36.010516 43.622070 37.037301                                                 
C 29.309600 41.139394 43.037519                                                 
C 29.215528 41.134356 49.090246                                                 
C 30.597640 43.528545 43.086973                                                 
C 31.928971 41.065108 49.115841                                                 
C 33.308767 38.832235 43.072304                                                 
C 33.277057 38.808689 49.078132                                                 
C 34.650252 41.194241 43.091625                                                 
C 35.956391 38.745581 49.105160                                                 
C 29.314842 45.820868 43.116136                                                 
C 29.205638 45.751933 49.175797                                                 
C 30.593281 48.176186 43.123806                                                 
C 31.924959 45.742156 49.180013                                                 
C 33.314685 43.511990 43.087437                                                 
C 33.268643 43.431117 49.148060                                                 
C 34.649688 45.847728 43.076560                                                 
C 35.961786 43.426966 49.141303                                                 
C 41.485461 39.050705 30.075202                                                 
C 41.415867 38.955665 37.119828                                                 
C 42.818327 41.383113 30.350391                                                 
C 44.106318 38.954098 36.997016                                                 
C 41.367234 38.864408 43.092393                                                 
C 41.345707 38.777229 49.118624                                                 
C 42.715202 41.196289 43.039020                                                 
C 44.029634 38.774057 49.115052                                                 
C 37.431140 41.369421 30.208196                                                 
C 37.359008 41.299218 37.136014                                                 
C 38.759308 43.701862 30.408054                                                 
C 40.052270 41.287311 37.029034                                                 
C 37.339370 41.188502 43.093216                                                 
C 37.309357 41.105181 49.129543                                                 
C 38.684099 43.522789 43.053057                                                 
C 39.996193 41.101848 49.125347                                                 
C 41.504228 34.367377 29.853091                                                 
C 41.462140 34.313235 37.425469                                                 
C 42.877063 36.721060 29.914631                                                 
C 44.113838 34.273808 37.198510                                                 
C 41.343677 34.195605 43.096168                                                 
C 41.382894 34.137193 49.066125                                                 
C 42.718011 36.539346 43.092115                                                 
C 44.009507 34.101584 49.089932                                                 
C 37.432655 36.649032 29.857776                                                 
C 37.378260 36.650690 37.376731                                                 
C 38.795670 39.029660 30.017956                                                 
C 40.049535 36.597395 37.344834                                                 
C 37.326056 36.513766 43.116192                                                 
C 37.329751 36.472496 49.071128                                                 
C 38.682739 38.864749 43.114453                                                 
C 39.985483 36.423987 49.097895                                                 
C 41.443787 48.367290 30.658906                                                 
C 41.394730 48.276361 36.840512                                                 
C 42.788300 50.692971 30.705817                                                 
C 44.081556 48.275000 36.823666                                                 
C 41.371421 48.176108 42.976224                                                 
C 41.340988 48.093956 49.103126                                                 
C 42.714476 50.502318 42.960185                                                 
C 44.029728 48.093382 49.093383                                                 
C 29.390779 55.422682 30.457636                                                 
C 29.280800 55.286056 37.012723                                                 
C 30.683357 57.716540 30.596445                                                 
C 31.997679 55.293108 36.950573                                                 
C 33.380050 53.071382 30.424055                                                 
C 33.335007 52.960961 36.985537                                                 
C 34.725430 55.383238 30.573214                                                 
C 36.025925 52.945065 36.898012                                                 
C 29.312825 55.183903 43.060752                                                 
C 29.183774 55.033288 49.072130                                                 
C 30.595577 57.475577 43.018242                                                 
C 31.922467 55.067473 49.124468                                                 
C 33.310107 52.831844 43.064409                                                 
C 33.266086 52.726415 49.193675                                                 
C 34.649517 55.157521 43.027822                                                 
C 35.960777 52.744761 49.183629                                                 
C 37.407482 50.705409 30.562111                                                 
C 37.363978 50.611308 36.889206                                                 
C 38.756689 53.033299 30.647655                                                 
C 40.053134 50.605918 36.838799                                                 
C 37.342269 50.502814 43.015666                                                 
C 37.304313 50.417341 49.157255                                                 
C 38.683744 52.828247 42.991270                                                 
C 39.996007 50.421793 49.122379                                                 
C 41.455115 43.704271 30.483066                                                 
C 41.396229 43.614441 36.899404                                                 
C 42.794180 46.034395 30.627291                                                 
C 44.087529 43.614971 36.851603                                                 
C 41.370885 43.522584 43.021827                                                 
C 41.342601 43.437431 49.112621                                                 
C 42.714278 45.849649 42.980573                                                 
C 44.030170 43.436594 49.103293                                                 
C 29.367921 50.757189 30.098014                                                 
C 29.252395 50.653913 37.256781                                                 
C 30.667189 53.085822 30.312348                                                 
C 31.985727 50.639579 37.135290                                                 
C 33.371884 48.396554 30.231849                                                 
C 33.327701 48.296665 37.101786                                                 
C 34.711673 50.722297 30.402718                                                 
C 36.021507 48.285788 36.954877                                                 
C 29.310849 50.502151 43.131136                                                 
C 29.190643 50.391992 49.207345                                                 
C 30.592000 52.827700 43.094934                                                 
C 31.916747 50.402413 49.212798                                                 
C 33.310507 48.173162 43.088918                                                 
C 33.263549 48.080345 49.193001                                                 
C 34.647826 50.502696 43.059421                                                 
C 35.960058 48.087822 49.162663                                                 
C 37.402147 46.041140 30.460476                                                 
C 37.361370 45.952852 36.943306                                                 
C 38.749220 48.371119 30.571987                                                 
C 40.048477 45.944893 36.882127                                                 
C 37.342633 45.847190 43.043437                                                 
C 37.306582 45.762351 49.135617                                                 
C 38.683710 48.176657 43.007638                                                 
C 39.996932 45.762890 49.115286                                                 
C 45.486716 32.079813 30.434597                                                 
C 45.533965 31.968691 37.070585                                                 
C 46.913595 34.381017 30.427212                                                 
C 48.108297 31.981474 36.868194                                                 
H 49.149713 30.197486 36.758429                                                 
H 50.551173 32.624777 30.833887                                                 
C 45.548159 36.723970 30.234820                                                 
C 45.473510 36.618716 36.999339                                                 
C 46.879060 39.053876 30.425237                                                 
C 48.151709 36.627342 36.858668                                                 
C 49.537778 34.417679 30.655230                                                 
C 49.524129 34.289868 36.829504                                                 
C 50.923675 36.696804 30.649095                                                 
C 52.162936 34.332530 36.796342                                                 
C 45.339794 31.887165 42.975981                                                 
C 45.432963 31.786666 49.060634                                                 
C 46.765443 34.197766 42.995635                                                 
C 48.011215 31.783911 49.078452                                                 
H 49.059289 29.999925 49.047508                                                 
H 50.421177 32.438572 42.913328                                                 
C 45.392083 36.542149 43.039036                                                 
C 45.382719 36.447700 49.108654                                                 
C 46.746456 38.866059 43.004340                                                 
C 48.058524 36.445573 49.110053                                                 
C 49.391199 34.232064 42.951081                                                 
C 49.431559 34.098508 49.102363                                                 
C 50.791291 36.517698 42.954401                                                 
C 52.063044 34.133369 49.105608                                                 
H 53.197125 32.538673 36.791267                                                 
H 53.096527 32.339838 49.091691                                                 
C 57.617179 39.089256 30.731478                                                 
C 57.543883 38.944089 36.821328                                                 
C 58.956827 41.346225 30.695983                                                 
C 60.257308 39.023361 36.831054                                                 
C 57.498419 38.910487 42.943527                                                 
C 57.469358 38.727655 49.105167                                                 
C 58.842275 41.166276 42.949203                                                 
C 60.182992 38.794341 49.086162                                                 
C 45.483697 46.035797 30.669720                                                 
C 45.428870 45.946622 36.825126                                                 
C 46.828908 48.364901 30.711430                                                 
C 48.115024 45.947649 36.819248                                                 
C 49.532859 43.710165 30.668054                                                 
C 49.465148 43.621141 36.817964                                                 
C 50.871498 46.034807 30.698846                                                 
C 52.154223 43.625071 36.815636                                                 
C 45.401080 45.850203 42.962536                                                 
C 45.375040 45.764307 49.093133                                                 
C 46.744552 48.175982 42.952201                                                 
C 48.063705 45.762370 49.096439                                                 
C 49.430925 43.524233 42.955976                                                 
C 49.407130 43.433029 49.097415                                                 
C 50.774662 45.848471 42.952672                                                 
C 52.095192 43.430022 49.104984                                                 
C 53.578366 41.381567 30.693999                                                 
C 53.505045 41.293955 36.816570                                                 
C 54.915593 43.702119 30.691114                                                 
C 56.193897 41.304629 36.816206                                                 
C 53.463683 41.196806 42.949502                                                 
C 53.439531 41.092027 49.106547                                                 
C 54.808546 43.518432 42.953327                                                 
C 56.128286 41.091975 49.111733                                                 
H 57.246244 34.891865 36.825327                                                 
H 58.653767 37.299869 30.779838                                                 
H 57.149312 34.673824 49.093643                                                 
H 58.533467 37.120049 42.936899                                                 
C 45.509487 41.384849 30.463862                                                 
C 45.443935 41.293127 36.867789                                                 
C 46.840878 43.708262 30.619834                                                 
C 48.128074 41.292668 36.827162                                                 
C 49.556789 39.053627 30.578338                                                 
C 49.486144 38.958679 36.822597                                                 
C 50.891593 41.380498 30.654116                                                 
C 52.168606 38.965220 36.813650                                                 
C 45.398892 41.197189 43.002217                                                 
C 45.377273 41.107649 49.105595                                                 
C 46.745495 43.523333 42.968387                                                 
C 48.061325 41.105773 49.101851                                                 
C 49.429892 38.868918 42.969717                                                 
C 49.408892 38.770815 49.105089                                                 
C 50.777949 41.190966 42.955946                                                 
C 52.094004 38.769704 49.107881                                                 
C 53.580280 36.749088 30.732265                                                 
C 53.533742 36.615604 36.810663                                                 
C 54.938607 39.021590 30.713930                                                 
C 56.206681 36.681500 36.819207                                                 
C 53.446371 36.568905 42.939326                                                 
C 53.448712 36.417096 49.108374                                                 
C 54.818682 38.842268 42.944448                                                 
C 56.117577 36.468163 49.106998                                                 
H 61.281376 37.226038 36.845969                                                 
H 62.685681 39.619808 30.765628                                                 
H 61.199060 36.992653 49.056499                                                 
H 62.570680 39.441108 42.929106                                                 
H 28.287357 61.700391 36.821144                                                 
H 28.185942 61.478121 48.705977                                                 
C 29.393407 60.101324 30.690946                                                 
C 29.296378 59.897077 36.860370                                                 
C 30.686586 62.334558 30.728801                                                 
C 32.006664 59.965818 36.852079                                                 
C 33.393944 57.723867 30.622323                                                 
C 33.344179 57.602776 36.875312                                                 
C 34.738135 60.039305 30.679158                                                 
C 36.033348 57.602824 36.851067                                                 
H 29.669146 64.135076 30.792886                                                 
H 32.324809 64.014163 36.837175                                                 
C 33.397273 62.401159 30.705534                                                 
C 33.356058 62.220995 36.842092                                                 
C 34.751085 64.663361 30.711083                                                 
C 36.031005 62.280187 36.845819                                                 
C 29.307917 59.866845 42.977114                                                 
C 29.205789 59.693163 48.892868                                                 
C 30.595961 62.100583 42.964868                                                 
C 31.924159 59.788406 49.028303                                                 
C 33.314245 57.493432 43.014011                                                 
C 33.268607 57.401473 49.102028                                                 
C 34.650516 59.810342 42.992709                                                 
C 35.970151 57.418548 49.166617                                                 
H 29.575480 63.900355 42.924656                                                 
H 32.230357 63.838752 48.978724                                                 
C 33.309349 62.174120 42.976357                                                 
C 33.273438 62.056469 49.073866                                                 
C 34.657393 64.434550 42.964150                                                 
C 35.949200 62.119243 49.132913                                                 
C 41.454887 57.687294 30.710384                                                 
C 41.407270 57.587737 36.833312                                                 
C 42.802576 60.014928 30.711841                                                 
C 44.090790 57.586834 36.835549                                                 
C 41.371550 57.482427 42.970000                                                 
C 41.337103 57.411826 49.136210                                                 
C 42.715227 59.808309 42.972181                                                 
C 44.027173 57.410002 49.122732                                                 
C 37.424865 60.035712 30.694475                                                 
C 37.381604 59.922908 36.840000                                                 
C 38.771886 62.356644 30.703362                                                 
C 40.065052 59.923367 36.838487                                                 
C 37.339759 59.816132 42.983211                                                 
C 37.304917 59.749114 49.159647                                                 
C 38.683200 62.139737 42.972158                                                 
C 39.992307 59.749993 49.151706                                                 
C 41.445514 53.027241 30.700604                                                 
C 41.399654 52.932676 36.824806                                                 
C 42.794938 55.354570 30.711914                                                 
C 44.085009 52.931008 36.820845                                                 
C 41.371809 52.828724 42.967491                                                 
C 41.339497 52.749703 49.117133                                                 
C 42.714854 55.154958 42.964426                                                 
C 44.028409 52.749451 49.102686                                                 
C 37.420584 55.371927 30.645800                                                 
C 37.374420 55.267006 36.851391                                                 
C 38.766250 57.692610 30.690931                                                 
C 40.060738 55.264056 36.830761                                                 
C 37.342629 55.158079 42.999395                                                 
C 37.306477 55.078731 49.171336                                                 
C 38.684135 57.481960 42.982366                                                 
C 39.995428 55.082964 49.144828                                                 
C 41.435219 67.025548 30.710593                                                 
C 41.454591 66.884578 36.884821                                                 
C 42.856472 69.338261 30.732417                                                 
C 44.078103 66.917558 36.891149                                                 
C 41.343700 66.809810 42.966909                                                 
C 41.378460 66.715491 49.094520                                                 
C 42.762413 69.122625 42.972897                                                 
C 44.009898 66.745594 49.130054                                                 
H 37.772662 68.788208 30.713053                                                 
H 40.421764 68.676320 36.898512                                                 
H 37.676397 68.566495 42.950827                                                 
H 40.352554 68.511265 49.034046                                                 
C 41.456212 62.352671 30.710556                                                 
C 41.414052 62.245790 36.849881                                                 
C 42.806316 64.676798 30.709936                                                 
C 44.094190 62.246723 36.856178                                                 
C 41.366985 62.140618 42.971793                                                 
C 41.342497 62.078371 49.137904                                                 
C 42.716642 64.465580 42.973712                                                 
C 44.024752 62.074820 49.140133                                                 
H 33.718888 66.457965 30.731510                                                 
H 33.622111 66.227766 42.946467                                                 
C 37.417324 64.711122 30.703072                                                 
C 37.405472 64.552588 36.861373                                                 
C 38.805223 66.994465 30.703873                                                 
C 40.056366 64.598830 36.863203                                                 
C 37.327623 64.490891 42.963921                                                 
C 37.321656 64.389118 49.106671                                                 
C 38.710963 66.773227 42.960225                                                 
C 39.981674 64.434391 49.120465                                                 
C 61.670616 41.419747 30.706758                                                 
C 61.537049 41.259389 36.833979                                                 
C 62.961746 43.651523 30.676123                                                 
H 63.603399 41.287670 36.851059                                                 
C 61.665613 46.035543 30.646716                                                 
C 61.519813 45.937773 36.832164                                                 
C 62.953680 48.329084 30.647071                                                 
H 63.587318 45.939383 36.844510                                                 
H 65.030385 43.671565 30.709536                                                 
C 61.557239 41.242541 42.942604                                                 
C 61.474646 41.025901 49.074090                                                 
C 62.848906 43.472381 42.943461                                                 
H 63.541660 41.040691 49.025769                                                 
C 61.556272 45.859586 42.952789                                                 
C 61.474110 45.709076 49.083661                                                 
C 62.841182 48.156367 42.949033                                                 
H 63.542086 45.702279 49.031226                                                 
H 64.918183 43.487152 42.930175                                                 
C 61.677972 55.309118 30.823412                                                 
C 61.514237 55.291536 36.878439                                                 
C 62.961426 57.705932 30.921881                                                 
H 63.582807 55.292097 36.906964                                                 
H 65.034142 52.993097 30.774963                                                 
C 61.557975 55.136822 42.948814                                                 
C 61.503222 55.052717 49.027207                                                 
C 62.850434 57.523206 42.939498                                                 
H 63.570012 55.053835 48.955324                                                 
H 64.913300 52.838292 42.936011                                                 
C 61.670779 50.672153 30.671925                                                 
C 61.517840 50.613500 36.846106                                                 
C 62.964947 52.995906 30.731024                                                 
H 65.023803 48.325473 30.670025                                                 
C 61.556580 50.498155 42.952717                                                 
C 61.488228 50.384607 49.080078                                                 
C 62.842264 52.837724 42.946962                                                 
H 64.912038 48.154191 42.938845                                                 
H 41.809054 71.121731 30.752970                                                 
H 44.449655 71.008984 36.931338                                                 
H 41.713834 70.906148 42.961271                                                 
H 44.384350 70.837375 49.068288                                                 
C 45.433735 69.332941 30.756403                                                 
C 45.501269 69.229614 36.919375                                                 
H 46.486359 71.110974 30.807218                                                 
C 48.077510 69.231110 36.934001                                                 
C 49.480935 66.982251 30.754432                                                 
C 49.493661 66.916578 36.919254                                                 
H 50.512138 68.774223 30.810718                                                 
C 52.124084 66.879901 36.930786                                                 
H 49.126887 71.013980 36.957751                                                 
C 45.339876 69.119978 42.985277                                                 
C 45.432473 69.056037 49.126434                                                 
H 46.391004 70.899710 42.984107                                                 
C 48.012569 69.056763 49.166662                                                 
C 49.390214 66.772689 42.997716                                                 
C 49.429596 66.743683 49.188085                                                 
H 50.421115 68.565569 42.995747                                                 
C 52.064507 66.710989 49.196037                                                 
H 49.063179 70.838688 49.148023                                                 
H 57.209546 66.333376 36.944851                                                 
H 57.149855 66.179158 49.101791                                                 
H 53.158517 68.673437 36.954821                                                 
H 53.094397 68.506024 49.186238                                                 
C 57.579856 62.329132 30.818090                                                 
C 57.520751 62.279797 36.902290                                                 
H 58.614070 64.117286 30.904694                                                 
C 60.233539 62.208268 36.923306                                                 
C 57.499069 62.093712 42.960212                                                 
C 57.474819 62.118644 49.035583                                                 
H 58.534614 63.884622 42.940936                                                 
C 60.195233 62.028507 48.976213                                                 
C 53.532138 64.653024 30.749432                                                 
C 53.505564 64.596125 36.910258                                                 
C 56.173884 64.540534 36.919121                                                 
C 53.445460 64.436780 42.987645                                                 
C 53.451676 64.431482 49.165508                                                 
C 56.115900 64.387730 49.127221                                                 
C 61.653961 59.969009 30.957636                                                 
C 61.520565 59.974205 36.920651                                                 
H 62.681041 61.757929 31.068404                                                 
H 63.587857 59.953648 36.955946                                                 
H 65.027599 57.700699 31.001246                                                 
H 61.252383 64.009525 36.958600                                                 
C 61.558625 59.755562 42.936936                                                 
C 61.501195 59.762643 48.938133                                                 
H 62.574762 61.556141 42.912473                                                 
H 63.566537 59.757241 48.862151                                                 
H 64.920188 57.507442 42.917822                                                 
H 61.228112 63.818723 48.932136                                                 
H 63.555384 50.378797 49.023519                                                 
H 36.296943 34.681635 49.000317                                                 
H 36.290975 66.181553 49.034302                                                 
H 27.242291 50.500511 43.143614                                                 
H 54.476869 66.229269 42.979705                                                 
H 63.584827 50.613549 36.860990                                                 
H 54.479224 34.777301 42.927798                                                 
H 36.350566 34.871804 37.593685                                                 
H 36.372309 66.343304 36.873048                                                 
H 54.560398 66.446245 30.809070                                                 
H 27.299106 50.773250 30.031025                                                 
H 54.611913 34.958600 30.805156                                                 
Li 31.769558 41.372603 27.003010                                                
Li 30.357005 48.351660 33.797367                                                
Li 58.878988 59.723542 52.347793                                                
Li 36.079948 38.611086 33.515277                                                
Li 60.347749 57.743033 27.513472                                                
Li 42.332795 36.150919 33.758161                                                
Li 30.476498 57.490078 52.385360                                                
Li 35.994240 63.739800 45.992640                                                
%ENDBLOCK POSITIONS_ABS                                                         

--------------------------------------------------------------------------------
-------------------------------- END INPUT FILE --------------------------------
--------------------------------------------------------------------------------


 
<<<<<<<<<<<<<<<<<<<<<<<<<<<<<<<<< Full system >>>>>>>>>>>>>>>>>>>>>>>>>>>>>>>>>>
<<<<<<<<<<<<<<<<<<<<<<<<<<< PAW Dataset information >>>>>>>>>>>>>>>>>>>>>>>>>>>
File: ~/pp/paw/c_pbe_abinit.paw; rc = 1.25 bohr; shape type =  3; rshape = 1.25 bohr;
  Atomic number:  6;  ionic charge:  4.000000
    Partial Wave 1: l = 0
    Partial Wave 2: l = 0
    Partial Wave 3: l = 1
    Partial Wave 4: l = 1
  Core charge supplied for Nonlinear Core Corrections
File: ~/pp/paw/h_pbe_abinit.paw; rc = 0.90 bohr; shape type =  3; rshape = 0.90 bohr;
  Atomic number:  1;  ionic charge:  1.000000
    Partial Wave 1: l = 0
    Partial Wave 2: l = 0
File: ~/pp/paw/li_pbe_abinit.paw; rc = 1.42 bohr; shape type =  3; rshape = 1.42 bohr;
  Atomic number:  3;  ionic charge:  3.000000
    Partial Wave 1: l = 0
    Partial Wave 2: l = 0
    Partial Wave 3: l = 0
    Partial Wave 4: l = 1
    Partial Wave 5: l = 1
<<<<<<<<<<<<<<<<<<<<<<<<<<<<<<<<<<<<<<< >>>>>>>>>>>>>>>>>>>>>>>>>>>>>>>>>>>>>>>

-------------------------- Atom counting information ---------------------------
Symbol    Natoms    Nngwfs    Nprojs
  C        484      1936      3872
  H        108       108       216
  Li         8        40        72
.......   ......    ......    ......
Totals:    600      2084      4160
--------------------------------------------------------------------------------

=============================== PSINC grid sizes ===============================
                      Simulation cell:  189 x 189 x 189
                              FFT-box:  117 x 117 x 117
                                  PPD:    7 x   7 x   1
Grid space d1=  0.499927596032a0 (KE cutoff=  30.39413Eh = 827.06648eV)
Grid space d2=  0.499927596032a0 (KE cutoff=  30.39413Eh = 827.06648eV)
Grid space d3=  0.499927596032a0 (KE cutoff=  30.39413Eh = 827.06648eV)
================================================================================
  
WARNING in cell_grid_distribute:
Average of less than one 23-slab per node, so workload cannot be
equally balanced between nodes.

********************* Fourier parallelisation information **********************
       Coarse grid (whole simulation cell) dimensions:    189   189   189
          Real-space ('12') slabs/node (min max mean):      1     2     1
         Recip-space ('23') slabs/node (min max mean):      0     1     0
********************************************************************************

********************* Fourier parallelisation information **********************
       Double grid (whole simulation cell) dimensions:    378   378   378
          Real-space ('12') slabs/node (min max mean):      2     3     2
         Recip-space ('23') slabs/node (min max mean):      1     2     1
********************************************************************************

Atom SCF Calculation for C  : Z (AE atom) =   6 : Z (PS atom) =   4
Config String: 2s2 2p2
Orbitals (num,occ):  2     2.00 2.00
Orbitals   (num,l):  2        0    1
Real-space Grid (nr,dr,rmax): 1377    0.0065406977    9.0000000000
Spherical Bessel Basis (nsws,lmax,cutoff):   37    2  183.0099912382
Confining potential (l,width,scale):  0    3.0000000000  100.0000000000
Confining potential (l,width,scale):  1    3.0000000000  100.0000000000
  1         -5.4350126632   -1.2715272878    4.5135247139   -1.5681949477
  2         -5.3876836850   -1.3562195125    4.4235426751   -1.5380057521
  3         -5.3928844498   -1.3758175853    4.4021699684   -1.5318377811
  4         -5.3988962903   -1.3800385428    4.3975423583   -1.5307324410
  5         -5.4018428823   -1.3823489590    4.3950111904   -1.5301555648
  6         -5.4033571720   -1.3835805046    4.3936635548   -1.5298576834
  7         -5.4041480647   -1.3842324820    4.3929512000   -1.5297032953
  8         -5.4045641108   -1.3845769138    4.3925755232   -1.5296229456
  9         -5.4047838258   -1.3847587737    4.3923775340   -1.5295810042
 10         -5.4049001347   -1.3848548089    4.3922731819   -1.5295590658
 11         -5.4049618018   -1.3849055476    4.3922181562   -1.5295475724
 12         -5.4049945351   -1.3849323732    4.3921891206   -1.5295415432
 13         -5.4050119258   -1.3849465673    4.3921737867   -1.5295383767
 14         -5.4050211723   -1.3849540841    4.3921656816   -1.5295367119
 15         -5.4050260920   -1.3849580684    4.3921613935   -1.5295358358
 16         -5.4050287113   -1.3849601822    4.3921591228   -1.5295353742
 17         -5.4050301068   -1.3849613045    4.3921579192   -1.5295351307
 18         -5.4050308507   -1.3849619010    4.3921572806   -1.5295350022
 19         -5.4050312476   -1.3849622183    4.3921569415   -1.5295349343
 20         -5.4050314594   -1.3849623873    4.3921567612   -1.5295348984
 21         -5.4050315725   -1.3849624773    4.3921566653   -1.5295348794
 22         -5.4050316330   -1.3849625253    4.3921566143   -1.5295348693
Atom SCF converged after  22 iterations to a total energy of     -5.40503163

Atom SCF Calculation for H  : Z (AE atom) =   1 : Z (PS atom) =   1
Config String: 1s1
Orbitals (num,occ):  1     1.00
Orbitals   (num,l):  1        0
Real-space Grid (nr,dr,rmax): 1377    0.0065406977    9.0000000000
Spherical Bessel Basis (nsws,lmax,cutoff):   37    1  183.0099912382
Confining potential (l,width,scale):  0    3.0000000000  100.0000000000
  1         -0.3605254152   -0.2399954029    0.2820952946   -0.2424203210
  2         -0.4156854077   -0.2398249290    0.2871789324   -0.2464796203
  3         -0.4412552402   -0.2379720642    0.2899127187   -0.2499011370
  4         -0.4517265951   -0.2371980236    0.2908966173   -0.2514141636
  5         -0.4557775773   -0.2369735141    0.2911607883   -0.2519713623
  6         -0.4573363459   -0.2369240355    0.2912108681   -0.2521663171
  7         -0.4579443228   -0.2369187864    0.2912112833   -0.2522344454
  8         -0.4581858602   -0.2369215483    0.2912049187   -0.2522587615
  9         -0.4582834939   -0.2369242589    0.2912002081   -0.2522677042
 10         -0.4583235236   -0.2369258837    0.2911975892   -0.2522710965
 11         -0.4583401154   -0.2369267223    0.2911962825   -0.2522724192
 12         -0.4583470483   -0.2369271266    0.2911956643   -0.2522729467
 13         -0.4583499624   -0.2369273145    0.2911953803   -0.2522731607
 14         -0.4583511926   -0.2369274000    0.2911952521   -0.2522732486
 15         -0.4583517136   -0.2369274385    0.2911951948   -0.2522732850
 16         -0.4583519349   -0.2369274556    0.2911951693   -0.2522733002
 17         -0.4583520290   -0.2369274632    0.2911951581   -0.2522733066
Atom SCF converged after  17 iterations to a total energy of     -0.45835203

Atom SCF Calculation for Li : Z (AE atom) =   3 : Z (PS atom) =   3
Config String: 1s2 2s1 2p0
Orbitals (num,occ):  3     2.00 1.00 0.00
Orbitals   (num,l):  3        0    0    1
Real-space Grid (nr,dr,rmax): 1377    0.0065406977    9.0000000000
Spherical Bessel Basis (nsws,lmax,cutoff):   37    2  183.0099912382
Confining potential (l,width,scale):  0    3.0000000000  100.0000000000
Confining potential (l,width,scale):  1    3.0000000000  100.0000000000
  1         -6.0640888065   -4.6655401716    2.5388576516   -0.9989538799
  2         -6.9627542978   -4.0954079129    2.9808988108   -1.1965571426
  3         -7.2692687601   -3.8889996707    3.2029735703   -1.3193883705
  4         -7.3784440298   -3.8322099748    3.2868571989   -1.3711018151
  5         -7.4170278248   -3.8191968371    3.3144974220   -1.3911175539
  6         -7.4303549880   -3.8172386945    3.3228486489   -1.3986896266
  7         -7.4348052089   -3.8175483495    3.3251259310   -1.4015352495
  8         -7.4362242328   -3.8180607346    3.3256233205   -1.4026016384
  9         -7.4366459715   -3.8184145665    3.3256561549   -1.4029998726
 10         -7.4367560626   -3.8186169740    3.3256001574   -1.4031477379
 11         -7.4367765260   -3.8187239825    3.3255481763   -1.4032021548
 12         -7.4367751741   -3.8187782620    3.3255144587   -1.4032219192
 13         -7.4367707398   -3.8188051288    3.3254952336   -1.4032289600
 14         -7.4367680349   -3.8188156035    3.3254870176   -1.4032309087
 15         -7.4367661982   -3.8188217406    3.3254819951   -1.4032318132
 16         -7.4367650112   -3.8188253257    3.3254789583   -1.4032322224
 17         -7.4367642682   -3.8188274151    3.3254771375   -1.4032324006
 18         -7.4367638134   -3.8188286307    3.3254760529   -1.4032324736
 19         -7.4367635392   -3.8188293370    3.3254754103   -1.4032325004
 20         -7.4367633760   -3.8188297469    3.3254750310   -1.4032325080
 21         -7.4367632796   -3.8188299846    3.3254748079   -1.4032325082
Atom SCF converged after  21 iterations to a total energy of     -7.43676328

Determining parallel strategy ...
... using space-filling curve
... NGWF load balancing: max     17;  min     13;  average     15
... Projector load balancing: max     34;  min     26;  average     30
... done
Calculating Ewald energy ...
              Ewald: real-space energy =   35896.822487
        Ewald: reciprocal-space energy =   34105.893347
         Ewald: (sum_charge)**2 Energy =    2683.191946
         Ewald: (sum_charge**2) Energy =     243.557081
                          Ewald Energy =   67075.966807
======================= Empirical dispersion information =======================
Model : Grimme D2
Dispersion Correction Energy: -0.18785893E+01 Hartree
================================================================================
Basis initialisation ...... NGWF spheres initialised
... Projector spheres initialised
... NGWF tight boxes initialised
... Projector tight boxes initialised
... Tight-boxes gathered
... NGWF basis size (local,global):     269142  38411348
... PAW projector initialisation
... done

============================= Charge Augmentation ==============================
                           Aug box size:   13 x  13 x  13
================================================================================

========================== Sparse matrix information ===========================
                        Overlap matrix filling:  39.08%
                        Density kernel filling: 100.00%
              NGWF-Proj overlap matrix filling:  11.15%
                    Aug Overlap matrix filling:  43.30%
                    Hamiltonian matrix filling:  43.30%
                  NGWF diagonal matrix filling:   0.19%
                             KS matrix filling: 100.00% 
                           KSKS matrix filling: 100.00% 
================================================================================

Sparse matrix initialisation ... done
NGWF initialisation ...... done
============ Calculation of NGWF S^-1 using Hotelling algorithm ================ 
         Iteration  |  Frobenius norm and Maximum abs value    (of I-S*S_n^-1)   
               1       0.45331128E+02     0.99625766E+00
               2       0.45026724E+02     0.99253781E+00
               3       0.44459836E+02     0.98516363E+00
               4       0.43469451E+02     0.97066480E+00
               5       0.41914066E+02     0.94258101E+00
               6       0.39794880E+02     0.88957759E+00
               7       0.37223785E+02     0.79390838E+00
               8       0.34269397E+02     0.77026632E+00
               9       0.31164907E+02     0.74997159E+00
              10       0.28206913E+02     0.73484409E+00
              11       0.25130246E+02     0.71882935E+00
              12       0.21265392E+02     0.70171633E+00
              13       0.16142352E+02     0.67184915E+00
              14       0.10025209E+02     0.62034505E+00
              15       0.44534452E+01     0.53394302E+00
              16       0.12260500E+01     0.39927450E+00
              17       0.34184338E+00     0.22488508E+00
              18       0.10171082E+00     0.71619586E-01
              19       0.10311698E-01     0.72722856E-02
              20       0.10633073E-03     0.74989424E-04
              21       0.11306223E-07     0.79736795E-08
              22       0.39939656E-13     0.53290705E-14
================================================================================
Calculating core density ...
================================= Core Density =================================
               Core den box size:   21 x  21 x  21
================================================================================
 ... done
Up spin density kernel initialisation ...... done

Writing density kernel to file "8/592nano.dkn" ... done

>>> Optimising kernel for current NGWFs:

--------------------------- Ensemble-DFT optimisation --------------------------
Running ScaLAPACK on  140 processor(s).

--------------------------------------------------------------------------------
  Iter                              Commutator    Free_energy(A=E-TS)     DeltaA
#    0                          0.000847655093   -2874.90999218332854  -2.87E+03

Step                       =       0.381966011250
Energy                     =   -2874.882470823056
Entropy (-TS)              =      -0.027521360791
Free energy (A=E-TS)       =   -2874.909992183329
Est. 0K Energy 0.5*(E+A)   =   -2874.896231503192
Residual Non-orthogonality =       0.000000000000
Residual N_electrons       =       0.000000000516

Spin          Integrated_Ne            Fermi_level     Delta_Fermi_level
   1      2068.000000002046        -0.252146219765             -2.52E-01

                           Spin 1          
     Orb      H-eigenvalues     Occupancies
       1 |    -1.9111776793    1.0000000000 | 
                          ------
    1030 |    -0.2817917491    0.9999140207 | 
    1031 |    -0.2703099854    0.9967816528 | 
    1032 |    -0.2567706360    0.8115747635 | 
    1033 |    -0.2543547753    0.6676125531 | 
    1034 |    -0.2525841335    0.5345155708 | 
                 - Gap at zero temperature -
    1035 |    -0.2509338696    0.4054445329 | 
    1036 |    -0.2486583348    0.2494801013 | 
    1037 |    -0.2448805633    0.0915950554 | 
    1038 |    -0.2445433477    0.0831119255 | 
    1039 |    -0.2434887751    0.0610078306 | 
                          ------
    2084 |     0.5661423452    0.0000000000 | 

                       |  Abs_value |  Threshold | Converged
     Delta_Free_energy |   2.87E+03 |   1.00E-06 |        No
     Delta_Energy      |   2.87E+03 |   1.00E-04 |        No
     Delta_Entropy     |   2.75E-02 |   1.00E-04 |        No
     Commutator        |   8.48E-04 |   1.00E-05 |        No
     Delta_Fermi_level |   2.52E-01 |   1.00E-03 |        No

  Line search of the free energy minimum:
  Step_type        Step             Free_energy   Predicted_free_energy
.   Initial    0.000000    -2874.90999218332854
.    Trial1    0.381966    -2874.05799229287686
.    Trial2    0.145898    -2875.30864052512788
. Quadratic    0.137933    -2875.30434768712985    -2875.30997417552862
.     Cubic    0.155873    -2875.31122241327057    -2875.31058586530935

--------------------------------------------------------------------------------
  Iter                              Commutator    Free_energy(A=E-TS)     DeltaA
#    1                          0.000565913023   -2875.31122241327057  -4.01E-01

Step                       =       0.155873383258
Energy                     =   -2875.287412560215
Entropy (-TS)              =      -0.023809852621
Free energy (A=E-TS)       =   -2875.311222413271
Est. 0K Energy 0.5*(E+A)   =   -2875.299317486742
Residual Non-orthogonality =       0.000000000000
Residual N_electrons       =      -0.000000000435

Spin          Integrated_Ne            Fermi_level     Delta_Fermi_level
   1      2067.999999998160        -0.236509805394              1.56E-02

                           Spin 1          
     Orb      H-eigenvalues     Occupancies
       1 |    -1.9118804862    1.0000000000 | 
                          ------
    1030 |    -0.2650389410    0.9998776850 | 
    1031 |    -0.2557255429    0.9976892052 | 
    1032 |    -0.2486934344    0.9791082101 | 
    1033 |    -0.2396635596    0.7302471497 | 
    1034 |    -0.2358559410    0.4485640877 | 
                 - Gap at zero temperature -
    1035 |    -0.2337927602    0.2977625889 | 
    1036 |    -0.2321085160    0.1994369187 | 
    1037 |    -0.2304414991    0.1282837172 | 
    1038 |    -0.2293407662    0.0941654257 | 
    1039 |    -0.2276925969    0.0581809953 | 
                          ------
    2084 |     0.5855723517    0.0000000000 | 

                       |  Abs_value |  Threshold | Converged
     Delta_Free_energy |   4.01E-01 |   1.00E-06 |        No
     Delta_Energy      |   4.05E-01 |   1.00E-04 |        No
     Delta_Entropy     |   3.71E-03 |   1.00E-04 |        No
     Commutator        |   5.66E-04 |   1.00E-05 |        No
     Delta_Fermi_level |   1.56E-02 |   1.00E-03 |        No

  Line search of the free energy minimum:
  Step_type        Step             Free_energy   Predicted_free_energy
.   Initial    0.000000    -2875.31122241327057
.    Trial1    0.155873    -2875.39091894510011
.    Trial2    0.478301    -2873.77006742267122
. Quadratic    0.100015    -2875.44675426798585    -2875.42704799351395

--------------------------------------------------------------------------------
  Iter                              Commutator    Free_energy(A=E-TS)     DeltaA
#    2                          0.000436479230   -2875.44675426798585  -1.36E-01

Step                       =       0.100014769168
Energy                     =   -2875.420591492923
Entropy (-TS)              =      -0.026162775262
Free energy (A=E-TS)       =   -2875.446754267986
Est. 0K Energy 0.5*(E+A)   =   -2875.433672880454
Residual Non-orthogonality =       0.000000000000
Residual N_electrons       =       0.000000000199

Spin          Integrated_Ne            Fermi_level     Delta_Fermi_level
   1      2068.000000000867        -0.229177022981              7.33E-03

                           Spin 1          
     Orb      H-eigenvalues     Occupancies
       1 |    -1.9190630497    1.0000000000 | 
                          ------
    1030 |    -0.2581233411    0.9998927804 | 
    1031 |    -0.2468786591    0.9962778874 | 
    1032 |    -0.2364715162    0.9091597933 | 
    1033 |    -0.2313017465    0.6617124110 | 
    1034 |    -0.2294159296    0.5188512451 | 
                 - Gap at zero temperature -
    1035 |    -0.2266167765    0.3082183459 | 
    1036 |    -0.2251211911    0.2174259082 | 
    1037 |    -0.2238585132    0.1571679650 | 
    1038 |    -0.2227302989    0.1155038239 | 
    1039 |    -0.2201925714    0.0553537794 | 
                          ------
    2084 |     0.5930831511    0.0000000000 | 

                       |  Abs_value |  Threshold | Converged
     Delta_Free_energy |   1.36E-01 |   1.00E-06 |        No
     Delta_Energy      |   1.33E-01 |   1.00E-04 |        No
     Delta_Entropy     |   2.35E-03 |   1.00E-04 |        No
     Commutator        |   4.36E-04 |   1.00E-05 |        No
     Delta_Fermi_level |   7.33E-03 |   1.00E-03 |        No

  Line search of the free energy minimum:
  Step_type        Step             Free_energy   Predicted_free_energy
.   Initial    0.000000    -2875.44675426798585
.    Trial1    0.100015    -2875.51161251790472
.    Trial2    0.443779    -2875.26385889329731
. Quadratic    0.155100    -2875.51576970656606    -2875.52097451089139

--------------------------------------------------------------------------------
  Iter                              Commutator    Free_energy(A=E-TS)     DeltaA
#    3                          0.000331838127   -2875.51576970656606  -6.90E-02

Step                       =       0.155099920180
Energy                     =   -2875.490141988381
Entropy (-TS)              =      -0.025627718387
Free energy (A=E-TS)       =   -2875.515769706566
Est. 0K Energy 0.5*(E+A)   =   -2875.502955847473
Residual Non-orthogonality =       0.000000000000
[...]
 C   447 -- C   457       -0.10      5.37998
 C   105 -- C   477       -0.10      5.38003
 C   346 -- C   376       -0.10      5.38006
 C    38 -- C    56       -0.10      5.38020
 C   257 -- C   439       -0.10      5.38026
 C   198 -- C   224       -0.10      5.38055
 C    28 -- C   126       -0.10      5.38059
 C    49 -- C    59       -0.10      5.38061
 C   114 -- C   446       -0.10      5.38062
 C    20 -- C    26       -0.10      5.38067
 C   302 -- C   346       -0.10      5.38070
 C    62 -- C   368       -0.10      5.38074
 C   457 -- C   475       -0.10      5.38075
 C    43 -- C    65       -0.10      5.38082
 C     1 -- C   449       -0.10      5.38083
 C    82 -- C   116       -0.10      5.38090
 C     3 -- C   109       -0.10      5.38090
 C   210 -- C   280       -0.10      5.38090
 C   226 -- C   304       -0.10      5.38093
 C   101 -- C   127       -0.10      5.38099
 C    24 -- C    30       -0.10      5.38100
 C   245 -- C   345       -0.10      5.38105
 C    24 -- C    38       -0.10      5.38108
 C   226 -- C   382       -0.10      5.38112
 C   248 -- C   298       -0.10      5.38126
 C   216 -- C   234       -0.10      5.38129
 C   255 -- C   269       -0.10      5.38142
 C     7 -- C    57       -0.10      5.38164
 C    35 -- C   497       -0.10      5.38168
 C    72 -- C   102       -0.09      5.38177
 C    70 -- C   120       -0.10      5.38183
 C   206 -- C   304       -0.10      5.38184
 C    28 -- C   114       -0.10      5.38195
 C   358 -- C   388       -0.10      5.38201
 C   301 -- C   447       -0.10      5.38201
 C   436 -- C   482       -0.10      5.38210
 C   218 -- C   280       -0.10      5.38212
 C     1 -- C     7       -0.10      5.38213
 C    88 -- C   560       -0.09      5.38224
 C   316 -- C   390       -0.10      5.38226
 C   420 -- C   444       -0.09      5.38250
 C     3 -- C   447       -0.10      5.38258
 C   214 -- C   378       -0.10      5.38265
 C    13 -- C    43       -0.10      5.38266
 C    11 -- C    77       -0.10      5.38267
 C    96 -- C   126       -0.10      5.38270
 C   245 -- C   267       -0.10      5.38275
 C   349 -- C   363       -0.10      5.38279
 C   416 -- C   476       -0.10      5.38316
 C   204 -- C   294       -0.10      5.38316
 C     9 -- C   245       -0.10      5.38324
 C    67 -- C    89       -0.09      5.38325
 C   347 -- C   349       -0.10      5.38329
 C   351 -- C   361       -0.10      5.38329
 C   244 -- C   278       -0.10      5.38329
 C   409 -- C   455       -0.10      5.38341
 C   436 -- C   454       -0.10      5.38349
 C   268 -- C   302       -0.10      5.38349
 C   229 -- C   373       -0.09      5.38352
 C   377 -- C   391       -0.10      5.38362
 C    51 -- C    57       -0.10      5.38371
 C   350 -- C   380       -0.10      5.38389
 C   268 -- C   286       -0.10      5.38395
 C    15 -- C    89       -0.10      5.38415
 C   262 -- C   460       -0.10      5.38423
 C   243 -- C   269       -0.10      5.38445
 C   107 -- C   109       -0.10      5.38445
 C    86 -- C   482       -0.10      5.38461
 C    88 -- C   118       -0.10      5.38470
 C     5 -- C    59       -0.10      5.38474
 C   319 -- C   361       -0.09      5.38483
 C    32 -- C   102       -0.10      5.38499
 C   431 -- C   441       -0.10      5.38529
 C   438 -- C   480       -0.10      5.38529
 C   243 -- C   347       -0.10      5.38538
 C    76 -- C   564       -0.10      5.38540
 C   373 -- C   379       -0.10      5.38547
 C   409 -- C   485       -0.10      5.38558
 C    36 -- C    98       -0.10      5.38565
 C    15 -- C    41       -0.10      5.38577
 C   272 -- C   462       -0.10      5.38612
 C   444 -- C   462       -0.10      5.38628
 C    46 -- C    64       -0.10      5.38629
 C    33 -- C    43       -0.10      5.38631
 C   111 -- C   121       -0.10      5.38642
 C   222 -- C   300       -0.10      5.38661
 C   289 -- C   455       -0.10      5.38668
 C    99 -- C   121       -0.10      5.38672
 C   277 -- C   373       -0.10      5.38682
 C    34 -- C   100       -0.10      5.38687
 C   440 -- C   488       -0.10      5.38694
 C   194 -- C   276       -0.10      5.38748
 C   275 -- C   375       -0.10      5.38750
 C    32 -- C   118       -0.10      5.38757
 C    35 -- C    41       -0.10      5.38759
 C    86 -- C   120       -0.10      5.38779
 C   272 -- C   294       -0.10      5.38787
 C   345 -- C   351       -0.10      5.38788
 C   266 -- C   296       -0.10      5.38813
 C   287 -- C   301       -0.10      5.38814
 C   368 -- C   394       -0.10      5.38838
 C   446 -- C   460       -0.10      5.38839
 C   221 -- C   243       -0.10      5.38847
 C   333 -- C   365       -0.10      5.38848
 C   192 -- C   290       -0.09      5.38850
 C   187 -- C   193       -0.08      5.38891
 C   385 -- C   395       -0.10      5.38892
 C    38 -- C   104       -0.10      5.38900
 C   213 -- C   219       -0.10      5.38908
 C   481 -- C   489       -0.09      5.38909
 C   477 -- C   485       -0.10      5.38911
 C   285 -- C   407       -0.10      5.38913
 C   375 -- C   377       -0.10      5.38920
 C    92 -- C   564       -0.10      5.38938
 C   202 -- C   216       -0.10      5.38943
 C    48 -- C   126       -0.10      5.38966
 C   182 -- C   220       -0.09      5.38984
 C    85 -- C    95       -0.10      5.38989
 C    87 -- C    93       -0.09      5.39007
 C   194 -- C   288       -0.10      5.39013
 C    77 -- C    91       -0.10      5.39023
 C   330 -- C   394       -0.10      5.39026
 C   293 -- C   295       -0.09      5.39027
 C    55 -- C   525       -0.10      5.39039
 C   205 -- C   263       -0.09      5.39072
 C   364 -- C   390       -0.09      5.39105
 C   190 -- C   300       -0.09      5.39119
 C   201 -- C   239       -0.09      5.39142
 C   313 -- C   319       -0.10      5.39152
 C    51 -- C   521       -0.10      5.39173
 C    74 -- C   488       -0.09      5.39182
 C   214 -- C   276       -0.10      5.39193
 C   233 -- C   239       -0.09      5.39207
 C    79 -- C    89       -0.09      5.39209
 C   423 -- C   489       -0.08      5.39215
 C   256 -- C   290       -0.09      5.39217
 C   257 -- C   267       -0.10      5.39218
 C   224 -- C   242       -0.09      5.39224
 C   103 -- C   525       -0.10      5.39251
 C   430 -- C   480       -0.09      5.39345
 C   222 -- C   374       -0.09      5.39408
 C   408 -- C   416       -0.09      5.39426
 C   206 -- C   292       -0.09      5.39428
 C   227 -- C   237       -0.09      5.39447
 C   316 -- C   374       -0.10      5.39460
 C   277 -- C   299       -0.09      5.39462
 C    73 -- C    79       -0.10      5.39488
 C    84 -- C   567       -0.10      5.39509
 C   275 -- C   301       -0.09      5.39530
 C    40 -- C    54       -0.10      5.39547
 C   444 -- C   492       -0.09      5.39615
 C    49 -- C   391       -0.09      5.39643
 C    40 -- C   102       -0.09      5.39650
 C   242 -- C   328       -0.09      5.39730
 C    36 -- C    50       -0.09      5.39753
 C   237 -- C   275       -0.09      5.39824
 C    66 -- C   100       -0.09      5.39828
 C    53 -- C   395       -0.09      5.39837
 C   185 -- C   299       -0.09      5.39894
 C    81 -- C    87       -0.09      5.39902
 C   254 -- C   284       -0.09      5.39930
 C    82 -- C   492       -0.10      5.39946
 C   289 -- C   299       -0.10      5.39956
 C   327 -- C   333       -0.09      5.39993
 C   205 -- C   207       -0.09      5.40019
 C   213 -- C   313       -0.09      5.40120
 C   211 -- C   221       -0.09      5.40148
 C   202 -- C   208       -0.09      5.40186
 C   293 -- C   421       -0.09      5.40243
 C    69 -- C    95       -0.09      5.40249
 C   191 -- C   221       -0.09      5.40280
 C   212 -- C   230       -0.08      5.40417
 C   211 -- C   315       -0.09      5.40495
 C   186 -- C   192       -0.09      5.40803
 C   143 -- C   219       -0.07      5.40829
 C   188 -- C   286       -0.08      5.40931
 C    97 -- C   123       -0.09      5.40996
 C    99 -- C   521       -0.09      5.41108
 C    94 -- C   128       -0.09      5.41181
 C    96 -- C   567       -0.09      5.41195
 C   285 -- C   287       -0.09      5.41397
 C   181 -- C   287       -0.08      5.41456
 C   253 -- C   413       -0.09      5.41506
 C   264 -- C   424       -0.09      5.41561
 C   466 -- C   538       -0.09      5.41563
 C   339 -- C   497       -0.09      5.41569
 C   262 -- C   292       -0.09      5.41570
 C   252 -- C   406       -0.09      5.41815
 C    75 -- C   463       -0.09      5.41842
 C    56 -- C   342       -0.09      5.41970
 C   470 -- C   547       -0.09      5.42001
 C    83 -- C   467       -0.09      5.42035
 C    65 -- C    91       -0.09      5.42058
 C   193 -- C   219       -0.09      5.42068
 C    52 -- C   338       -0.09      5.42076
 C   198 -- C   204       -0.09      5.42093
 C   220 -- C   238       -0.09      5.42123
 C   343 -- C   506       -0.09      5.42153
 C   234 -- C   332       -0.09      5.42207
 H   591 -- Li  594       -0.03      5.42219
 C   231 -- C   323       -0.09      5.42270
 C   197 -- C   199       -0.09      5.42271
 C   230 -- C   318       -0.09      5.42288
 C    68 -- C   556       -0.09      5.42311
 C   182 -- C   188       -0.09      5.42339
 C    70 -- C   104       -0.09      5.42380
 C   189 -- C   255       -0.08      5.42482
 C   261 -- C   427       -0.09      5.42611
 C   422 -- C   430       -0.09      5.42622
 C    71 -- C   516       -0.09      5.42664
 C   186 -- C   212       -0.08      5.42756
 C   190 -- C   284       -0.08      5.43249
 C   238 -- C   314       -0.08      5.43501
 C   227 -- C   309       -0.08      5.43977
 C   229 -- C   235       -0.08      5.44518
 C   183 -- C   237       -0.07      5.44684
 C   189 -- C   191       -0.08      5.44942
 C   185 -- C   235       -0.07      5.46526
 C   260 -- C   420       -0.08      5.48842
 C    67 -- C   511       -0.07      5.49019
 C    72 -- C   560       -0.07      5.49286
 C   134 -- Li  598       -0.07      5.49360
 C   181 -- C   183       -0.07      5.50370
 H   588 -- Li  596       -0.02      5.53975
 H   141 -- Li  596       -0.02      5.54009
 C   150 -- Li  598       -0.04      5.55420
 H   151 -- Li  598       -0.01      5.66379
==================================================


=================== Orbital energy and occupancy information ===================

      Total number of orbitals:    2084
        Occupancy sum (kernel):    1034.000000001
   Occupancy sum (eigenvalues):    1034.000000001
                 HOMO-LUMO gap:       0.002224574 Eh
                 Mid-gap level:      -0.087390628 Eh

                        Orbital | Energy (Eh) | Occupancy
                            1    -1.902987445   1.0000000
                        .......   ...........   .........
                         1026    -0.133168943   0.9999978
                         1027    -0.127594579   0.9999899
                         1028    -0.123914798   0.9999714
                         1029    -0.123297388   0.9999657
                         1030    -0.120071875   0.9999081
                         1031    -0.106920200   0.9942997
                         1032    -0.097926598   0.9095739
                         1033    -0.092064792   0.6145406
                         1034    -0.091353001   0.5636807
                         1035    -0.088502915   0.3435105
                        ....... -- gap at 0K -- .........
                         1036    -0.086278341   0.2078040
                         1037    -0.084566079   0.1310940
                         1038    -0.084048195   0.1129277
                         1039    -0.081103829   0.0478360
                         1040    -0.079448326   0.0291747
                         1041    -0.078166559   0.0194005
                         1042    -0.078008165   0.0183683
                         1043    -0.071477134   0.0023932
                         1044    -0.070700160   0.0019013
                         1045    -0.069374622   0.0012393
                        .......   ...........   .........
                         2084     0.788703350   0.0000000

================================================================================

===================== Writing canonical molecular orbitals =====================
| Orbital  Energy (eV)  Norm     |
| HOMO     -2.40828687  1.000000 | Writing "8/592nano_HOMO.cube" ... done
Writing "8/592nano_HOMO.dx" ... done
| LUMO     -2.34775312  1.000000 | Writing "8/592nano_LUMO.cube" ... done
Writing "8/592nano_LUMO.dx" ... done
================================================================================
 
===================== Density of States (DOS) calculation ======================
Writing "8/592nano_DOS.txt" ...  done
================================================================================
 
Writing bands to file "8/592nano.val_bands" ... done
 
================ Projected Density of States (pDOS) calculation ================
 
Constructing AM resolved functions  ...... done
Writing NGWF plot files in formats: CUBE DX ...  done
 
Performing overlap integrals ...  done
 
Computing pDOS weights ...  done
 
All bands spilling parameter =   3.42 %
Occupancy-weighted spilling parameter =   0.97 %
 
 => Outputting data for OptaDOS <=
 
Writing pDOS weights to file "8/592nano.val_pdos_bin" ... done
 
Writing band gradients to file "8/592nano.val_dome_bin" ... done
 
Writing Castep output cell file to "8/592nano-out.cell" ... done
 
 => Computing Gaussian smeared pDOS <= 
Writing "8/592nano_PDOS.txt" ...  done
 
 => Computing Occupancy-weighted Gaussian smeared pDOS <= 
Writing "8/592nano_occ_PDOS.txt" ...  done
  => Band centres: 
 S band centre of group 1:  -14.905204 eV
 P band centre of group 1:   -7.795114 eV
  Band centres done. <=
  => Integrated number of electrons in each AM band: 
 S num electrons of group 1:  546.365318
 P num electrons of group 1: 1501.652083
  Integrated number of electrons done. <=
================================================================================

------------------------------ TIMING INFORMATION ------------------------------
AVERAGE TIME:    8522.362s on    140 node(s)                                    
TOTAL TIME:      8522.362s on    140 node(s)                                    
================= AVERAGE TIMINGS FROM ALL NODES (CUMULATIVE) ==================
|| TAG                                    #calls    cpu time   %total  Gflops ||
|| work_imbalance                       :     1        0.00s   0.000%  ------ ||
|| sparse_set_to_garbage                :   147        0.01s   0.000%  ------ ||
|| paw_tcore_density                    :     1        0.01s   0.000%  ------ ||
|| paw_sphere_density_on_grid           :     1        0.01s   0.000%  ------ ||
|| basis_extract_function_from_box      :   387        0.02s   0.000%  ------ ||
|| paw_dij_hartree                      :   832        0.03s   0.000%  ------ ||
|| ngwfs_initialise_from_radial         :     2        0.04s   0.001%  ------ ||
|| density_init_guess_real              :     1        0.13s   0.002%  ------ ||
|| ewald_calculate_energy               :     1        0.14s   0.002%  ------ ||
|| paw_tcore_hartree_on_grid            :     1        0.33s   0.004%  ------ ||
|| paw_dataset_init                     :     3        0.33s   0.004%  ------ ||
|| pseudo_make_structure_factor         :     1        0.45s   0.005%  ------ ||
|| restart_kernel_write                 :    14        0.81s   0.010%  ------ ||
|| sparse_init                          :     1        0.94s   0.011%  ------ ||
|| dense_normal_eigensolve              :     1        1.07s   0.013%  ------ ||
|| paw_species_calc_proj_prec_mat       :     1        1.89s   0.022%  ------ ||
|| sparse_embed_hotelling_invert_embed  :    25        6.16s   0.072%  ------ ||
|| ngwf_gradient_coeffs                 :    13        6.57s   0.077%  ------ ||
|| fourier_apply_box_pair               :   577        6.72s   0.079%  1.983k ||
|| sw_init                              :     1        7.53s   0.088%  ------ ||
|| augmentation_screen_dij              :   625       12.49s   0.147%  ------ ||
|| basis_copy_function_to_box           : 12905       13.97s   0.164%  ------ ||
|| paw_dij_xc                           :   832       22.20s   0.261%  ------ ||
|| projectors_init_fftbox_recip         :    79       24.93s   0.293%  ------ ||
|| hartree_on_grid                      :   620       33.90s   0.398%  ------ ||
|| integrals_kinetic                    :    25       39.34s   0.462%  ------ ||
|| projectors_func_ovlp_box             :    26       40.84s   0.479%  ------ ||
|| eigenstates_pdos                     :     1       44.12s   0.518%  ------ ||
|| function_ops_brappd_ketppd           :    52       44.58s   0.523%  ------ ||
|| sparse_trace                         :  7760       50.54s   0.593%  ------ ||
|| hamiltonian_energy_components        :     3       57.19s   0.671%  ------ ||
|| augmentation_density_on_grid         :   620       57.68s   0.677%  ------ ||
|| aug_nonlocal_mat                     :   819       57.75s   0.678%  ------ ||
|| fourier_apply_cell_forward           :  3096       72.08s   0.846% 149.494 ||
|| fourier_apply_cell_backward          :  3097       77.33s   0.907% 139.388 ||
|| basis_dot_function_with_box          : 2.853M      77.56s   0.910%  ------ ||
|| eigenstates_calculate                :     1       84.39s   0.990%  ------ ||
|| restart_ngwfs_tightbox_output        :    12      120.48s   1.414%  ------ ||
|| xc_energy_potential                  :   619      130.89s   1.536%  ------ ||
|| sparse_product                       :  6892      204.41s   2.399%  ------ ||
|| basis_add_function_to_box            : 8.147M     214.43s   2.516%  ------ ||
|| dense_eigensolve                     :   591      236.57s   2.776%  ------ ||
|| projectors_gradient_batch            :    26      296.85s   3.483%  ------ ||
|| integrals_locpot_mat_els_batch       :   416      358.70s   4.209%  ------ ||
|| cell_grid_extract_box_real           :  7102      364.43s   4.276%  ------ ||
|| cell_grid_deposit_box_real           : 22989      379.44s   4.452%  ------ ||
|| projectors_grad_precond_batch        :    26      430.77s   5.055%  ------ ||
|| edft_diag_ngwf_ham                   :   590      610.60s   7.165%  ------ ||
|| density_fftbox_deposit_to_cell       : 10540      668.63s   7.846%  ------ ||
|| properties_calculate                 :     1      752.31s   8.828%  ------ ||
|| density_batch_row_sums               :  1240      806.98s   9.469%  ------ ||
|| ngwf_gradient_build_batch            :    26      811.24s   9.519%  ------ ||
|| ngwf_gradient_batch                  :    26      881.94s  10.349%  ------ ||
|| fourier_apply_box                    : 40806      952.69s  11.179%  3.198k ||
|| potential_apply_to_ngwf_batch        :   416      999.25s  11.725%  ------ ||
|| density_fftbox_interpolate_multiply  : 10540     1072.00s  12.579%  ------ ||
|| edft_apply_smearing_operator         :   590     1080.28s  12.676%  ------ ||
|| ngwf_gradient_lnv                    :    13     1180.58s  13.853%  ------ ||
|| integrals_locpot_dbl_grid            :   208     1364.28s  16.008%  ------ ||
|| density_batch_interp_deposit         :  1240     2298.50s  26.970%  ------ ||
|| density_on_dbl_grid                  :   620     3230.73s  37.909%  ------ ||
|| hamiltonian_lhxc_calculate           :   615     3513.53s  41.227%  ------ ||
|| edft_calculate                       :    13     6036.27s  70.829%  ------ ||
|| ngwf_cg_optimise                     :     1     7753.67s  90.980%  ------ ||
|| total_time                           :     1     8522.36s 100.000%  ------ ||
================================================================================
Overhead of generating timer report: 
- 0 ms averaging over threads,
- 20 ms ensuring consistency across MPI ranks,
- 0 ms printing in order.

Job completed: 19-05-2020 12:04 (+0100)

