 +---------------------------------------------------------------+
 |                                                               |
 |        ####### #     # ####### ####### ####### ######         |
 |        #     # ##    # #          #    #       #     #        |
 |        #     # # #   # #          #    #       #     #        |
 |        #     # #  #  # #####      #    #####   ######         |
 |        #     # #   # # #          #    #       #              |
 |        #     # #    ## #          #    #       #              |
 |        ####### #     # #######    #    ####### #              |
 |                                                               |
 |        Linear-Scaling Ab Initio Total Energy Program          |
 |                                                               |
 |          Release for academic collaborators of ODG            |
 |                                             Version 5.3.2.12  |
 |                                                               |
 +---------------------------------------------------------------+
 |                                                               |
 |  Authors:                                                     |
 |  Jacek Dziedzic, Peter D. Haynes, Nicholas D. M. Hine,        |
 |  Arash. A. Mostofi, Mike C. Payne and Chris-Kriton Skylaris   |
 |                                                               |
 |  Contributors:                                                |
 |  J. Aarons, L. Andrinopoulos, P. W. Avraam, R. A. Bell,       |
 |  A. Bhandari, G. A. Bramley, R. J. Charlton, S. J. Clark,     |
 |  R. J. Clements, G. C. Constantinescu, F. Corsetti,           |
 |  N. Corsini, O. Dieguez, S. M. M. Dubois, K. K. B. Duff,      |
 |  J. M. Escartin, A. Greco, H. Helal, Q. O. Hill, L. P. Lee,   |
 |  J.-H. Li, E. B. Linscott, G. Moynihan, D. D. O`Regan,        |
 |  O. K. Okan, M. J. S. Phipps, C. J. Pickard,                  |
 |  J. C. A. Prentice, M. I. J. Probert, L. E. Ratcliff,         |
 |  M. Robinson, A. Ruiz Serrano, J. S. Spencer, E. W. Tait,     |
 |  G. Teobaldi, D. Turban, V. Vitale, K. A. Wilkinson,          |
 |  C. Weber, J. C. Womack, N. Yeung and T. J. Zuehlsdorff       |
 |                                                               |
 |                                   Copyright (c) 2004-2020     |
 |                                                               |
 |  Please cite:                                                 |
 |  "Introducing ONETEP: Linear-scaling density functional       |
 |   simulations on parallel computers".                         |
 |   C.-K. Skylaris, P. D. Haynes, A. A. Mostofi, M. C. Payne.   |
 |   J. Chem. Phys. 122 084119 (2005).                           |
 |                                                               |
 |          in all publications arising from your use of ONETEP. |
 |                                                               |
 +---------------------------------------------------------------+
 |                                                               |
 |   ONETEP is based on developments described in the following  |
 |   publications:                                               |
 |                                                               |
 |  "Nonorthogonal generalized Wannier function pseudopotential  |
 |   plane-wave method".                                         |
 |   C.-K. Skylaris, A. A. Mostofi, P. D. Haynes, O. Dieguez,    |
 |   M. C. Payne.                                                |
 |   Phys. Rev. B 66 035119 (2002).                              |
 |                                                               |
 |  "Preconditioned iterative minimization for linear-scaling    |
 |   electronic structure calculations".                         |
 |   A. A. Mostofi, P. D. Haynes, C.-K. Skylaris, M. C. Payne.   |
 |   J. Chem. Phys. 119(17), pp.8842-8848 (2003).                |
 |                                                               |
 |  "Total-energy calculations on a real space grid with         |
 |   localized functions and a plane-wave basis".                |
 |   A. A. Mostofi, C.-K. Skylaris, P. D. Haynes, M. C. Payne.   |
 |   Comput. Phys. Commun. 147, pp.788-802 (2002).               |
 |                                                               |
 |  "Accurate kinetic energy evaluation in electronic structure  |
 |   calculations with localized functions on real space grids"  |
 |   C.-K. Skylaris, A. A. Mostofi, P. D. Haynes, C. J. Pickard, |
 |   M. C. Payne.                                                |
 |   Comput. Phys. Commun. 140, pp.315-322 (2001).               |
 |                                                               |
 |  "Accurate ionic forces and geometry optimization in linear-  |
 |   scaling density-functional theory with local orbitals"      |
 |   N. D. M. Hine, M. Robinson, P. D. Haynes, C.-K. Skylaris,   |
 |   M. C. Payne, and A. A. Mostofi.                             |
 |   Phys. Rev. B 83 195102 (2011).                              |
 |                                                               |
 +---------------------------------------------------------------+

Job started: 29-09-2020 17:14 (+0100)
 
Reading parameters from file "32/592nano.dat" ...... done

If your calculation crashes here, before "Checking processes and threads..."
is displayed, then your stack size is insufficient.
If so, use "ulimit -s unlimited" at runtime.
You can disable this check with "check_stack_size F".

Checking processes and threads...
   Determining the default number of threads...
      No default threads set at compilation time: defaulting to 1.
      OpenMP library call suggests 4 threads.
      Hybrid MPI-OpenMP compilation detected.
      Number of MPI processes > 1.
      OMP_NUM_THREADS environment variable present and
      its value matches the one obtained from the OpenMP library call.
      Using this value as default.
      Default threads: 4
      Default applies to threads_max and threads_num_fftboxes.
      Settings in the input file override this default.
   ... done

   Running with 160 MPI processes.
   There are 10 MPI processes running on the same node as the root process.
   Each MPI process is using: 
               1 threads for simulation cell FFTs.
               1 threads for parallel FFT box operations.
               4 threads for loops over batched FFT box operations.
               4 threads in other parallel regions.
... done

Basic input checks...
Resetting ngwf_cg_rotate to TRUE for EDFT calculations
... done

Reading geometry and species blocks from file "32/592nano.dat" ...    
  Number of PPD points along a3 set to 1.  This is 
  the default value, it may have been provided also in the input file.
... done
 Writing xyz coordinates to file "32/592nano.xyz" ... done


--------------------------------------------------------------------------------
---------------------------------- INPUT FILE ----------------------------------
--------------------------------------------------------------------------------

task : singlepoint                                                              
do_properties : true                                                            
ddec_classical_hirshfeld T                                                      
dx_format T                                                                     
edft T                                                                          
edft_spin_fix 3                                                                 
output_detail VERBOSE                                                           
write_xyz T                                                                     
dispersion 4                                                                    
xc_functional PBE                                                               
cutoff_energy 830 eV                                                            
paw T                                                                           
geom_disp_tol 0.015 bohr                                                        
geom_energy_tol 1.5E-6 hartree                                                  
geom_force_tol 0.003 "ha/bohr"                                                  
EDFT_MAXIT 30                                                                   
pdos_max_l = 2                                                                  
dos_smear  0.1 eV                                                               
popn_calculate T                                                                
PDOS_PSEUDOATOMIC T                                                             
PDOS_REDUCE_SWS F                                                               
PDOS_CONSTRUCT_BASIS F                                                          
PDOS_LOWDIN T                                                                   
PDOS_ORTH_ATOM_BLOCKS F                                                         
PDOS_LCAO_OPTIMIZE F                                                            
pdos_optados_output T                                                           
homo_plot 0                                                                     
lumo_plot 0                                                                     
homo_dens_plot -1                                                               
lumo_dens_plot -1                                                               
%BLOCK SPECIES                                                                  
C C 6 4 9.0                                                                     
H H 1 1 9.0                                                                     
Li Li 3 5 9.0                                                                   
%ENDBLOCK SPECIES                                                               
%BLOCK SPECIES_POT                                                              
C "~/pp/paw/c_pbe_abinit.paw"                                                   
H "~/pp/paw/h_pbe_abinit.paw"                                                   
Li "~/pp/paw/li_pbe_abinit.paw"                                                 
%ENDBLOCK SPECIES_POT                                                           
%BLOCK SPECIES_ATOMIC_SET                                                       
C "SOLVE conf=2s2 2p2"                                                          
H "SOLVE conf=1s1"                                                              
Li "SOLVE conf=1s2 2s1 2p0"                                                     
%ENDBLOCK SPECIES_ATOMIC_SET                                                    
%BLOCK SPECIES_LDOS_GROUPS                                                      
C                                                                               
H                                                                               
Li                                                                              
%ENDBLOCK SPECIES_LDOS_GROUPS                                                   
%BLOCK LATTICE_CART                                                             
94.486315650000      0.000000000000       0.000000000000                        
0.000000000000       94.486315650000      0.000000000000                        
0.000000000000       0.000000000000       94.486315650000                       
%ENDBLOCK LATTICE_CART                                                          
%BLOCK POSITIONS_ABS                                                            
C 45.502097 50.680583 30.672987                                                 
C 45.447644 50.578149 36.771631                                                 
C 46.840311 53.025362 30.648238                                                 
C 48.144082 50.570738 36.778984                                                 
C 49.564986 48.362862 30.595211                                                 
C 49.490644 48.233676 36.763825                                                 
C 50.903710 50.708986 30.577643                                                 
C 52.187384 48.222954 36.772865                                                 
C 45.475301 55.354010 30.566434                                                 
C 45.462852 55.244318 36.775723                                                 
C 46.809971 57.697811 30.416240                                                 
C 48.158838 55.240730 36.784884                                                 
C 49.540637 53.036024 30.600740                                                 
C 49.496748 52.904705 36.791278                                                 
C 50.875922 55.380755 30.455656                                                 
C 52.191682 52.899624 36.809397                                                 
C 45.399401 50.476954 43.018257                                                 
C 45.377589 50.417724 49.125171                                                 
C 46.743762 52.811881 43.029999                                                 
C 48.078337 50.425082 49.150364                                                 
C 49.441491 48.145568 43.002802                                                 
C 49.431994 48.089591 49.203845                                                 
C 50.787199 50.479198 43.012724                                                 
C 52.130222 48.097476 49.339365                                                 
C 45.395724 55.149534 43.039829                                                 
C 45.365141 55.090864 49.246744                                                 
C 46.742072 57.484677 43.049245                                                 
C 48.060366 55.098019 49.276904                                                 
C 49.438257 52.809640 43.026023                                                 
C 49.416985 52.767313 49.223341                                                 
C 50.787789 55.144268 43.027104                                                 
C 52.114317 52.776980 49.358824                                                 
C 57.656412 48.412378 30.005421                                                 
C 57.570406 48.216738 36.889943                                                 
C 58.993807 50.759751 29.881166                                                 
C 60.303203 48.219014 37.017724                                                 
C 57.539724 48.163922 42.905104                                                 
C 57.505331 48.114500 49.809107                                                 
C 58.895407 50.481167 42.868258                                                 
C 60.233579 48.130562 50.034781                                                 
C 53.603775 50.724184 30.417903                                                 
C 53.532408 50.559041 36.813079                                                 
C 54.930369 53.067569 30.272552                                                 
C 56.231871 50.559279 36.859880                                                 
C 53.488964 50.481753 42.996743                                                 
C 53.467542 50.442759 49.422073                                                 
C 54.835460 52.810032 42.990035                                                 
C 56.155892 50.449953 49.679305                                                 
C 57.679877 43.751437 29.799567                                                 
C 57.594946 43.545575 36.863981                                                 
C 59.018206 46.075016 29.768306                                                 
C 60.317046 43.562675 36.989573                                                 
C 57.554264 43.506331 42.888142                                                 
C 57.526786 43.455813 50.055022                                                 
C 58.897865 45.833171 42.851686                                                 
C 60.231236 43.486309 50.349007                                                 
C 53.624564 46.054901 30.289017                                                 
C 53.536884 45.886780 36.757180                                                 
C 54.964664 48.396004 30.279022                                                 
C 56.236601 45.890715 36.809944                                                 
C 53.492367 45.823213 42.956958                                                 
C 53.480266 45.770646 49.515561                                                 
C 54.841883 48.154654 42.964705                                                 
C 56.176587 45.791856 49.761231                                                 
C 57.587159 57.750649 29.777621                                                 
C 57.587582 57.578882 36.942532                                                 
C 58.907194 60.112295 29.499769                                                 
C 60.304892 57.565172 36.948334                                                 
C 57.540295 57.474477 42.914223                                                 
C 57.483936 57.456383 50.025829                                                 
C 58.881534 59.829919 42.828320                                                 
C 60.201119 57.435394 50.277595                                                 
C 45.414491 64.684637 29.702221                                                 
C 45.502115 64.598694 36.857883                                                 
C 46.767915 67.025946 29.439485                                                 
C 48.192370 64.608774 36.850439                                                 
C 49.467098 62.358452 29.872022                                                 
C 49.543969 62.250573 36.848492                                                 
C 50.830542 64.725549 29.559588                                                 
C 52.237945 62.249440 36.949449                                                 
C 45.398963 64.496688 42.944232                                                 
C 45.342388 64.410058 50.101389                                                 
C 46.774250 66.837510 42.830160                                                 
C 48.026440 64.416700 50.167450                                                 
C 49.432518 62.150468 43.011354                                                 
C 49.384633 62.088866 49.946125                                                 
C 50.801975 64.511511 42.991491                                                 
C 52.063630 62.107260 50.083353                                                 
C 53.534777 60.049348 29.969332                                                 
C 53.555741 59.912572 36.913880                                                 
C 54.878651 62.421219 29.744563                                                 
C 56.253467 59.911125 36.983774                                                 
C 53.479855 59.800883 42.947617                                                 
C 53.422335 59.781860 49.877533                                                 
C 54.838452 62.177070 42.842856                                                 
C 56.139804 59.784709 50.040436                                                 
C 57.625455 53.082965 29.994512                                                 
C 57.570080 52.904161 36.926879                                                 
C 58.955659 55.441977 29.760394                                                 
C 60.301921 52.907762 37.045036                                                 
C 57.539700 52.810298 42.928798                                                 
C 57.480615 52.790903 49.891577                                                 
C 58.894171 55.159334 42.912168                                                 
C 60.209846 52.785487 50.235107                                                 
C 45.448549 60.020517 30.226539                                                 
C 45.490579 59.916583 36.770958                                                 
C 46.785128 62.354122 29.958944                                                 
C 48.184407 59.916286 36.788262                                                 
C 49.507283 57.707325 30.350496                                                 
C 49.516849 57.575594 36.796615                                                 
C 50.835510 60.041858 30.078356                                                 
C 52.206811 57.574393 36.835473                                                 
C 45.397878 59.818671 43.036769                                                 
C 45.350146 59.750554 49.601316                                                 
C 46.755272 62.153803 43.011580                                                 
C 48.047009 59.761406 49.641259                                                 
C 49.439312 57.478656 43.039184                                                 
C 49.401239 57.438314 49.467434                                                 
C 50.785166 59.814633 43.011897                                                 
C 52.094269 57.446149 49.585827                                                 
C 53.565353 55.392300 30.292238                                                 
C 53.542197 55.234143 36.836492                                                 
C 54.888897 57.740234 30.041118                                                 
C 56.235045 55.228973 36.889768                                                 
C 53.482746 55.140993 43.002478                                                 
C 53.450936 55.114133 49.534478                                                 
C 54.828301 57.478495 42.968603                                                 
C 56.140310 55.111926 49.789767                                                 
H 27.353403 41.272514 29.168941                                                 
H 28.226396 39.483416 36.932236                                                 
H 27.211809 41.135514 42.674217                                                 
H 28.207909 39.297028 50.209823                                                 
H 41.912912 30.237822 29.176876                                                 
C 42.938558 32.028223 29.295654                                                 
H 44.387645 30.141913 36.911688                                                 
H 41.754032 29.991802 42.736335                                                 
C 42.784663 31.782700 42.800149                                                 
H 44.395643 30.001240 50.617358                                                 
H 29.704736 37.195344 29.151083                                                 
C 30.725590 38.984595 29.309144                                                 
H 32.290672 37.145195 36.818734                                                 
H 33.782251 34.845000 29.173210                                                 
C 34.804960 36.631149 29.350143                                                 
H 29.525530 37.048252 42.654002                                                 
C 30.568843 38.833052 42.701069                                                 
H 32.268762 36.961547 50.260852                                                 
H 33.569756 34.666765 42.724959                                                 
C 34.614268 36.449931 42.775593                                                 
H 37.855533 32.547038 29.041125                                                 
C 38.867415 34.340320 29.228440                                                 
H 40.347708 32.495356 36.888042                                                 
H 37.651472 32.307125 42.809053                                                 
C 38.679094 34.098708 42.871468                                                 
H 40.325024 32.333119 50.426747                                                 
H 46.613697 30.266498 29.366543                                                 
H 46.458877 30.024993 42.530470                                                 
H 25.779865 48.274123 36.306484                                                 
C 27.849738 48.274725 36.371549                                                 
H 25.822483 48.033718 50.536292                                                 
C 27.884334 48.044724 50.381547                                                 
H 25.848084 43.533404 36.726889                                                 
H 27.326806 45.954925 29.306651                                                 
C 27.916598 43.547042 36.736518                                                 
H 25.839823 43.359527 50.366266                                                 
H 27.201835 45.798938 43.167669                                                 
C 27.905044 43.361268 50.294740                                                 
H 25.897769 57.683641 37.032164                                                 
H 27.256937 59.938662 29.484408                                                 
C 27.964787 57.668245 37.008231                                                 
H 25.818497 57.397712 50.479619                                                 
H 27.184343 59.809896 43.004556                                                 
C 27.886210 57.412705 50.410151                                                 
H 25.825552 53.018510 36.855998                                                 
H 27.279356 55.255295 29.435406                                                 
C 27.893745 52.979214 36.841724                                                 
H 25.807594 52.715804 50.500100                                                 
H 27.207757 55.135094 42.942167                                                 
C 27.870655 52.714727 50.373349                                                 
C 29.415055 41.264239 29.303368                                                 
C 29.246958 41.278727 36.847350                                                 
C 30.690691 43.624677 29.486437                                                 
C 31.931006 41.224192 36.905719                                                 
C 33.420611 38.911378 29.442821                                                 
C 33.319318 38.936860 36.707759                                                 
C 34.755331 41.289081 29.714217                                                 
C 35.994802 38.893166 36.918792                                                 
C 29.389777 45.959779 29.451504                                                 
C 29.174938 45.891865 36.647330                                                 
C 30.678246 48.278344 29.461155                                                 
C 31.912631 45.902999 36.747056                                                 
C 33.405498 43.614605 29.736084                                                 
C 33.275995 43.587427 36.827351                                                 
C 34.745460 45.964637 29.954803                                                 
C 35.989899 43.587815 36.805026                                                 
C 29.279460 41.109745 42.740095                                                 
C 29.224568 41.096714 50.212502                                                 
C 30.571415 43.456322 42.806769                                                 
C 31.913669 41.042067 50.125661                                                 
C 33.246649 38.753696 42.705795                                                 
C 33.294478 38.754479 50.146813                                                 
C 34.606179 41.120570 42.815007                                                 
C 35.944917 38.727856 50.178915                                                 
C 29.283002 45.803933 43.146433                                                 
C 29.183273 45.743053 50.282062                                                 
C 30.586377 48.132803 43.319724                                                 
C 31.910760 45.732184 50.064047                                                 
C 33.278246 43.454529 42.911348                                                 
C 33.256846 43.408940 50.005108                                                 
C 34.631512 45.803770 43.060411                                                 
C 35.964483 43.409873 49.807406                                                 
C 41.514774 39.000593 29.828993                                                 
C 41.403369 38.923850 36.818004                                                 
C 42.846610 41.330550 30.143600                                                 
C 44.084746 38.915711 36.832123                                                 
C 41.365377 38.776302 42.978369                                                 
C 41.374352 38.757342 49.944372                                                 
C 42.713428 41.120443 43.016564                                                 
C 44.055071 38.749717 49.828997                                                 
C 37.471280 41.297757 29.882188                                                 
C 37.349657 41.267271 36.839168                                                 
C 38.793969 43.638767 30.181645                                                 
C 40.047033 41.254239 36.802494                                                 
C 37.318457 41.114637 42.916816                                                 
C 37.310322 41.093812 49.910451                                                 
C 38.668364 43.458403 42.997913                                                 
C 40.006293 41.077560 49.746525                                                 
C 41.514687 34.320545 29.344035                                                 
C 41.390027 34.280266 36.826207                                                 
C 42.875121 36.674599 29.618709                                                 
C 44.051163 34.226495 36.974844                                                 
C 41.360390 34.061761 42.855363                                                 
C 41.361505 34.116174 50.260553                                                 
C 42.735480 36.426600 42.930322                                                 
C 44.040587 34.075569 50.353122                                                 
C 37.484538 36.596700 29.354629                                                 
C 37.369671 36.621112 36.827674                                                 
C 38.835378 38.978378 29.672043                                                 
C 40.037522 36.564543 36.814994                                                 
C 37.284651 36.381715 42.813708                                                 
C 37.332441 36.437764 50.034141                                                 
C 38.662283 38.771071 42.916750                                                 
C 40.002396 36.395848 50.235151                                                 
C 41.463481 48.323403 30.548796                                                 
C 41.391462 48.253692 36.755169                                                 
C 42.800965 50.667084 30.624025                                                 
C 44.091526 48.247263 36.757098                                                 
C 41.362130 48.139362 43.023728                                                 
C 41.336915 48.073575 49.237718                                                 
C 42.703839 50.478745 43.021583                                                 
C 44.034671 48.075315 49.160089                                                 
C 29.344053 55.268038 29.564544                                                 
C 29.224304 55.315046 36.981123                                                 
C 30.627542 57.611169 29.607603                                                 
C 31.952954 55.302590 36.900575                                                 
C 33.382589 52.972133 29.840125                                                 
C 33.288988 52.943634 36.796683                                                 
C 34.706904 55.299705 29.961894                                                 
C 35.998648 52.935919 36.765542                                                 
C 29.273985 55.141806 42.999765                                                 
C 29.171226 55.044079 50.337445                                                 
C 30.552430 57.491052 42.975441                                                 
C 31.887643 55.064832 50.108993                                                 
C 33.299573 52.829253 43.010111                                                 
C 33.244305 52.718404 49.907001                                                 
C 34.633133 55.163302 42.969555                                                 
C 35.935724 52.730389 49.601221                                                 
C 37.408727 50.643408 30.316438                                                 
C 37.341058 50.594937 36.754646                                                 
C 38.745114 52.987007 30.394704                                                 
C 40.041600 50.588579 36.757246                                                 
C 37.328561 50.483108 43.048584                                                 
C 37.283391 50.404011 49.459515                                                 
C 38.669680 52.824399 43.010406                                                 
C 39.982168 50.406978 49.272124                                                 
C 41.487771 43.653581 30.311210                                                 
C 41.395074 43.590816 36.768141                                                 
C 42.824690 45.994852 30.507283                                                 
C 44.092952 43.582256 36.757676                                                 
C 41.363713 43.458558 43.017896                                                 
C 41.348544 43.405913 49.468907                                                 
C 42.708593 45.799180 43.021878                                                 
C 44.049522 43.404441 49.378569                                                 
C 29.373807 50.610502 29.655661                                                 
C 29.148824 50.639319 36.656743                                                 
C 30.654150 52.959561 29.530785                                                 
C 31.918543 50.612697 36.711261                                                 
C 33.406211 48.284276 29.810206                                                 
C 33.271462 48.262144 36.709897                                                 
C 34.721564 50.632245 30.023145                                                 
C 35.979677 48.259861 36.742679                                                 
C 29.289913 50.484418 43.262106                                                 
C 29.163130 50.370585 50.314134                                                 
C 30.572092 52.837630 42.946016                                                 
C 31.902833 50.383407 50.042688                                                 
C 33.306847 48.135625 43.166628                                                 
C 33.256164 48.067832 49.881279                                                 
C 34.633140 50.482827 43.097294                                                 
C 35.942028 48.070304 49.608149                                                 
C 37.434069 45.967831 30.223745                                                 
C 37.334718 45.928173 36.769664                                                 
C 38.765969 48.309032 30.398945                                                 
C 40.038239 45.924917 36.761666                                                 
C 37.326907 45.796586 43.033668                                                 
C 37.298895 45.740912 49.572085                                                 
C 38.671064 48.139482 43.043370                                                 
C 39.993038 45.737770 49.392307                                                 
C 45.559080 32.043833 29.402169                                                 
C 45.446546 31.918506 36.900134                                                 
C 46.941872 34.346465 29.541735                                                 
C 48.054324 31.896552 36.898166                                                 
H 49.079451 30.100334 36.893728                                                 
H 50.658682 32.627769 29.366655                                                 
C 45.559506 36.685713 29.702164                                                 
C 45.428289 36.568127 36.902306                                                 
C 46.902648 39.030756 29.945508                                                 
C 48.112226 36.540309 36.918550                                                 
C 49.614651 34.406542 29.522114                                                 
C 49.470318 34.177077 36.963448                                                 
C 50.956540 36.693665 29.558359                                                 
C 52.147977 34.199877 36.924783                                                 
C 45.415281 31.802045 42.666587                                                 
C 45.438127 31.779820 50.450302                                                 
C 46.808447 34.101309 42.744282                                                 
C 48.058828 31.765561 50.340186                                                 
H 49.090004 29.975638 50.422481                                                 
H 50.525463 32.382555 42.664692                                                 
C 45.425470 36.444065 42.890743                                                 
C 45.412666 36.409540 50.057031                                                 
C 46.770552 38.796620 42.933763                                                 
C 48.097198 36.400267 50.026798                                                 
C 49.483130 34.164541 42.782459                                                 
C 49.474564 34.046180 50.230604                                                 
C 50.831230 36.450965 42.743163                                                 
C 52.150849 34.083893 50.224659                                                 
H 53.162039 32.399284 36.964086                                                 
H 53.181654 32.299693 50.372850                                                 
C 57.668318 39.097095 29.729682                                                 
C 57.606792 38.828032 37.009333                                                 
C 59.034894 41.411221 29.569163                                                 
C 60.294025 38.916055 37.138489                                                 
C 57.537059 38.858014 42.903348                                                 
C 57.556922 38.772820 50.359315                                                 
C 58.906891 41.151199 42.927338                                                 
C 60.242358 38.860836 50.492980                                                 
C 45.523831 46.007626 30.551638                                                 
C 45.442607 45.914611 36.750394                                                 
C 46.865665 48.349149 30.640934                                                 
C 48.141260 45.902707 36.745969                                                 
C 49.582630 43.696836 30.343439                                                 
C 49.491701 43.562960 36.740991                                                 
C 50.926277 46.036806 30.447009                                                 
C 52.190546 43.552490 36.738494                                                 
C 45.402375 45.802352 43.011411                                                 
C 45.390969 45.741567 49.220690                                                 
C 46.746818 48.140751 43.009351                                                 
C 48.090879 45.749246 49.240393                                                 
C 49.450497 43.478231 42.968326                                                 
C 49.448798 43.417351 49.409123                                                 
C 50.795184 45.813933 42.980336                                                 
C 52.142587 43.429996 49.551138                                                 
C 53.632620 41.406735 29.910957                                                 
C 53.535485 41.208929 36.792576                                                 
C 54.974408 43.731747 30.027134                                                 
C 56.256661 41.209645 36.863363                                                 
C 53.506725 41.169251 42.868079                                                 
C 53.494971 41.099539 49.838163                                                 
C 54.842040 43.493812 42.911670                                                 
C 56.202959 41.121282 50.094990                                                 
H 57.254316 34.738642 37.059582                                                 
H 58.702147 37.315602 29.528117                                                 
H 57.252566 34.686817 50.497386                                                 
H 58.574970 37.070081 42.837851                                                 
C 45.541925 41.346670 30.195195                                                 
C 45.444274 41.247418 36.784833                                                 
C 46.882787 43.681251 30.398505                                                 
C 48.137396 41.232827 36.773068                                                 
C 49.583479 39.046914 29.867100                                                 
C 49.481341 38.884476 36.838435                                                 
C 50.938052 41.375521 30.068527                                                 
C 52.180318 38.866839 36.853253                                                 
C 45.407679 41.129034 42.997699                                                 
C 45.406061 41.076013 49.549319                                                 
C 46.751081 43.468185 42.996859                                                 
C 48.104542 41.082188 49.556752                                                 
C 49.452643 38.812012 42.860011                                                 
C 49.454764 38.749177 49.807506                                                 
C 50.807218 41.145701 42.912752                                                 
C 52.157789 38.755986 49.936500                                                 
C 53.635574 36.752630 29.714620                                                 
C 53.549728 36.472747 36.960366                                                 
C 55.003217 39.048977 29.628494                                                 
C 56.226341 36.528179 36.967596                                                 
C 53.502375 36.514247 42.988623                                                 
C 53.537467 36.378847 50.208386                                                 
C 54.884908 38.809063 42.788150                                                 
C 56.204939 36.460471 50.334209                                                 
H 61.321571 37.129797 37.289191                                                 
H 62.747689 39.685874 29.473822                                                 
H 61.278185 37.075814 50.612828                                                 
H 62.614461 39.423460 43.000393                                                 
H 28.297627 61.732937 37.039687                                                 
H 28.167203 61.456623 50.524605                                                 
C 29.323834 59.964234 29.509672                                                 
C 29.301088 59.925496 36.989540                                                 
C 30.619777 62.244213 29.447553                                                 
C 31.977950 59.967000 36.946240                                                 
C 33.348438 57.641514 29.756502                                                 
C 33.322070 57.615827 36.842405                                                 
C 34.681352 59.974206 29.711689                                                 
C 36.031971 57.606656 36.711081                                                 
H 29.582686 64.030166 29.369026                                                 
H 32.336807 64.053009 36.577211                                                 
C 33.320309 62.335974 29.492034                                                 
C 33.375322 62.250144 36.611632                                                 
C 34.657638 64.617721 29.416268                                                 
C 36.048260 62.274850 36.455339                                                 
C 29.249760 59.833297 43.008885                                                 
C 29.187619 59.658017 50.437233                                                 
C 30.544096 62.128874 43.067933                                                 
C 31.890181 59.734004 50.375936                                                 
C 33.275284 57.511357 42.951839                                                 
C 33.230373 57.385253 50.076066                                                 
C 34.604532 59.851379 43.017628                                                 
C 35.929614 57.401734 49.791671                                                 
H 29.496048 63.911535 43.102862                                                 
H 32.207153 63.811589 50.409401                                                 
C 33.232561 62.219400 43.137375                                                 
C 33.242023 62.028679 50.239656                                                 
C 34.597444 64.520595 43.385036                                                 
C 35.897754 62.083230 50.079977                                                 
C 41.418586 57.671558 30.330690                                                 
C 41.431389 57.585061 36.727717                                                 
C 42.751351 60.005948 30.184470                                                 
C 44.128615 57.583992 36.761545                                                 
C 41.359249 57.497663 43.022801                                                 
C 41.310405 57.412895 49.460712                                                 
C 42.704178 59.827350 43.026698                                                 
C 44.009187 57.420712 49.404178                                                 
C 37.374909 59.983330 29.909945                                                 
C 37.397484 59.914907 36.609315                                                 
C 38.695075 62.316383 29.757839                                                 
C 40.093012 59.925965 36.675971                                                 
C 37.314032 59.845959 43.051738                                                 
C 37.261452 59.722714 49.846365                                                 
C 38.652128 62.182740 43.053189                                                 
C 39.956413 59.733869 49.721290                                                 
C 41.441198 52.998308 30.550901                                                 
C 41.403957 52.920082 36.759803                                                 
C 42.779094 55.340813 30.519003                                                 
C 44.103569 52.915954 36.770247                                                 
C 41.361083 52.816865 43.017927                                                 
C 41.322688 52.743248 49.232043                                                 
C 42.704901 55.155780 43.026182                                                 
C 44.020907 52.750670 49.167486                                                 
C 37.393391 55.317370 30.212969                                                 
C 37.361863 55.260826 36.744180                                                 
C 38.725771 57.659812 30.181973                                                 
C 40.065725 55.254902 36.740022                                                 
C 37.324285 55.166997 42.990049                                                 
C 37.276764 55.068377 49.547798                                                 
C 38.660726 57.509935 43.012787                                                 
C 39.964840 55.075989 49.370791                                                 
C 41.351149 67.024329 29.480345                                                 
C 41.463220 66.892514 36.885214                                                 
C 42.750601 69.320650 29.408917                                                 
C 44.136295 66.952219 36.933597                                                 
C 41.351283 66.867448 42.921915                                                 
C 41.295868 66.701972 50.276253                                                 
C 42.761511 69.149813 42.922947                                                 
C 43.955964 66.748289 50.263208                                                 
H 37.648501 68.763083 29.335082                                                 
H 40.428878 68.678151 36.997963                                                 
H 37.661082 68.649407 43.034319                                                 
H 40.259198 68.486857 50.410875                                                 
C 41.388961 62.327684 29.888096                                                 
C 41.462543 62.248089 36.768325                                                 
C 42.733866 64.680068 29.688960                                                 
C 44.149684 62.252041 36.797189                                                 
C 41.346667 62.172078 43.003547                                                 
C 41.312161 62.058013 49.950857                                                 
C 42.715526 64.516139 42.957812                                                 
C 43.990291 62.069222 49.860327                                                 
H 33.613354 66.395864 29.264779                                                 
H 33.553403 66.309210 43.480110                                                 
C 37.308536 64.680445 29.495164                                                 
C 37.439792 64.565213 36.517211                                                 
C 38.683064 66.977910 29.454119                                                 
C 40.116826 64.619414 36.864255                                                 
C 37.276849 64.575026 43.160154                                                 
C 37.268000 64.359988 50.180711                                                 
C 38.671726 66.844161 43.016785                                                 
C 39.928561 64.411019 50.290177                                                 
C 61.719222 41.480269 29.530003                                                 
C 61.600250 41.205606 37.151857                                                 
C 63.028938 43.747542 29.510435                                                 
H 63.661024 41.220220 37.286477                                                 
C 61.742120 46.098050 29.529283                                                 
C 61.604570 45.905360 36.953330                                                 
C 63.038959 48.440691 29.498879                                                 
H 63.667239 45.914881 37.108760                                                 
H 65.095019 43.760578 29.464674                                                 
C 61.595084 41.220160 42.957335                                                 
C 61.527906 41.123907 50.484384                                                 
C 62.913120 43.482183 42.884221                                                 
H 63.592422 41.150551 50.598878                                                 
C 61.630642 45.856164 42.809433                                                 
C 61.530019 45.812307 50.193719                                                 
C 62.929609 48.160673 42.792586                                                 
H 63.589967 45.823416 50.374030                                                 
H 64.980290 43.484215 42.882681                                                 
C 61.670105 55.450358 29.531782                                                 
C 61.595477 55.227747 36.981294                                                 
C 62.931294 57.826169 29.436499                                                 
H 63.660478 55.225242 37.090903                                                 
H 65.062000 53.158096 29.375833                                                 
C 61.621748 55.149318 42.876510                                                 
C 61.499380 55.112264 50.275249                                                 
C 62.893030 57.516148 42.916620                                                 
H 63.560561 55.115048 50.446629                                                 
H 64.998039 52.834649 42.856184                                                 
C 61.739361 50.775921 29.590965                                                 
C 61.593588 50.565207 36.835550                                                 
C 63.001383 53.132698 29.528707                                                 
H 65.097487 48.449307 29.326705                                                 
C 61.645500 50.479967 42.798815                                                 
C 61.509708 50.460311 50.135623                                                 
C 62.930947 52.824878 42.859718                                                 
H 64.997549 48.153378 42.759074                                                 
H 41.704653 71.102284 29.329048                                                 
H 44.483935 71.031552 37.051532                                                 
H 41.721196 70.937817 42.930358                                                 
H 44.304059 70.830350 50.438678                                                 
C 45.355847 69.321254 29.377841                                                 
C 45.528283 69.250588 36.991687                                                 
H 46.398993 71.104665 29.266917                                                 
C 48.157480 69.269641 36.939977                                                 
C 49.440284 67.008671 29.592138                                                 
C 49.575597 66.973419 36.924789                                                 
H 50.459768 68.800834 29.414610                                                 
C 52.241926 66.926772 36.953125                                                 
H 49.192764 71.057731 36.983591                                                 
C 45.364825 69.140337 42.885027                                                 
C 45.354976 69.051277 50.394352                                                 
H 46.417299 70.920860 42.856106                                                 
C 47.970669 69.060035 50.485789                                                 
C 49.435972 66.793456 42.963056                                                 
C 49.395509 66.765266 50.423310                                                 
H 50.470695 68.581711 42.872858                                                 
C 52.043186 66.745132 50.509783                                                 
H 49.000843 70.847989 50.599180                                                 
H 57.306510 66.351193 37.110982                                                 
H 57.128151 66.229974 50.549118                                                 
H 53.274021 68.716421 36.988301                                                 
H 53.057485 68.538304 50.683651                                                 
C 57.531978 62.393727 29.622355                                                 
C 57.605313 62.281355 37.054596                                                 
H 58.548632 64.186728 29.452480                                                 
C 60.298715 62.201519 37.005699                                                 
C 57.508873 62.124652 43.011689                                                 
C 57.478183 62.160852 50.295596                                                 
H 58.539720 63.915059 42.893265                                                 
C 60.175484 62.077990 50.446161                                                 
C 53.490188 64.694156 29.621560                                                 
C 53.619024 64.627244 37.042957                                                 
C 56.261838 64.567619 37.071585                                                 
C 53.464507 64.455449 42.955378                                                 
C 53.422721 64.486426 50.378213                                                 
C 56.102434 64.444874 50.376280                                                 
C 61.605232 60.064769 29.418458                                                 
C 61.596165 59.924664 36.944697                                                 
H 62.608685 61.870400 29.321951                                                 
H 63.661623 59.907699 36.924065                                                 
H 64.997531 57.835653 29.358741                                                 
H 61.329649 63.992627 37.010979                                                 
C 61.574317 59.768246 42.874416                                                 
C 61.480009 59.802452 50.469710                                                 
H 62.589521 61.569245 42.825260                                                 
H 63.541148 59.791226 50.617868                                                 
H 64.960720 57.519861 42.915417                                                 
H 61.198200 63.865755 50.610236                                                 
H 63.569258 50.467074 50.327467                                                 
H 36.303837 34.648474 50.189917                                                 
H 36.232052 66.142045 50.354045                                                 
H 27.211488 50.511310 43.375649                                                 
H 54.495649 66.244222 42.843377                                                 
H 63.654783 50.562595 37.028026                                                 
H 54.538065 34.726961 42.851235                                                 
H 36.338948 34.831429 36.914590                                                 
H 36.435719 66.385570 36.398570                                                 
H 54.509603 66.482767 29.421991                                                 
H 27.309179 50.600087 29.512311                                                 
H 54.673037 34.971525 29.526827                                                 
Li 58.828539 60.117636 33.474873                                                
Li 30.353370 43.428168 46.708253                                                
Li 44.007954 34.113045 33.003385                                                
Li 46.864229 66.957385 46.795402                                                
Li 60.306447 43.754140 46.388262                                                
Li 31.857463 60.164141 33.040145                                                
Li 51.279195 64.733541 33.438061                                                
Li 39.865231 65.056493 33.022179                                                
Li 60.525528 52.703368 46.360860                                                
Li 30.112665 52.782109 46.797022                                                
Li 35.514013 38.693521 46.306427                                                
Li 55.369421 38.517138 46.671606                                                
Li 36.137443 38.352697 33.044861                                                
Li 50.656146 36.159029 33.421303                                                
Li 39.937006 36.149021 46.367933                                                
Li 50.875466 35.915718 46.609940                                                
Li 54.760740 62.631818 46.699269                                                
Li 39.935414 64.700406 46.474529                                                
Li 30.388205 53.323789 33.364932                                                
Li 30.416879 48.020311 33.231428                                                
Li 31.999345 59.878076 46.490775                                                
Li 60.735561 53.328049 33.178311                                                
Li 55.083759 38.619091 33.463247                                                
Li 60.931856 48.112128 33.161706                                                
Li 46.628796 67.216745 33.393169                                                
Li 59.301129 59.845026 46.763309                                                
Li 31.605910 41.144446 32.987281                                                
Li 44.878687 33.573455 46.431190                                                
Li 59.461531 41.150965 33.503072                                                
Li 34.956991 64.448978 39.585433                                                
Li 28.229634 48.264091 40.165045                                                
Li 34.994400 64.489680 46.492560                                                
%ENDBLOCK POSITIONS_ABS                                                         

--------------------------------------------------------------------------------
-------------------------------- END INPUT FILE --------------------------------
--------------------------------------------------------------------------------


 
<<<<<<<<<<<<<<<<<<<<<<<<<<<<<<<<< Full system >>>>>>>>>>>>>>>>>>>>>>>>>>>>>>>>>>
<<<<<<<<<<<<<<<<<<<<<<<<<<< PAW Dataset information >>>>>>>>>>>>>>>>>>>>>>>>>>>
File: ~/pp/paw/c_pbe_abinit.paw; rc = 1.25 bohr; shape type =  3; rshape = 1.25 bohr;
  Atomic number:  6;  ionic charge:  4.000000
    Partial Wave 1: l = 0
    Partial Wave 2: l = 0
    Partial Wave 3: l = 1
    Partial Wave 4: l = 1
  Core charge supplied for Nonlinear Core Corrections
File: ~/pp/paw/h_pbe_abinit.paw; rc = 0.90 bohr; shape type =  3; rshape = 0.90 bohr;
  Atomic number:  1;  ionic charge:  1.000000
    Partial Wave 1: l = 0
    Partial Wave 2: l = 0
File: ~/pp/paw/li_pbe_abinit.paw; rc = 1.42 bohr; shape type =  3; rshape = 1.42 bohr;
  Atomic number:  3;  ionic charge:  3.000000
    Partial Wave 1: l = 0
    Partial Wave 2: l = 0
    Partial Wave 3: l = 0
    Partial Wave 4: l = 1
    Partial Wave 5: l = 1
<<<<<<<<<<<<<<<<<<<<<<<<<<<<<<<<<<<<<<< >>>>>>>>>>>>>>>>>>>>>>>>>>>>>>>>>>>>>>>

-------------------------- Atom counting information ---------------------------
Symbol    Natoms    Nngwfs    Nprojs
  C        484      1936      3872
  H        108       108       216
  Li        32       160       288
.......   ......    ......    ......
Totals:    624      2204      4376
--------------------------------------------------------------------------------

=============================== PSINC grid sizes ===============================
                      Simulation cell:  189 x 189 x 189
                              FFT-box:  117 x 117 x 117
                                  PPD:    7 x   7 x   1
Grid space d1=  0.499927596032a0 (KE cutoff=  30.39413Eh = 827.06648eV)
Grid space d2=  0.499927596032a0 (KE cutoff=  30.39413Eh = 827.06648eV)
Grid space d3=  0.499927596032a0 (KE cutoff=  30.39413Eh = 827.06648eV)
================================================================================
  
WARNING in cell_grid_distribute:
Average of less than one 23-slab per node, so workload cannot be
equally balanced between nodes.

********************* Fourier parallelisation information **********************
       Coarse grid (whole simulation cell) dimensions:    189   189   189
          Real-space ('12') slabs/node (min max mean):      1     2     1
         Recip-space ('23') slabs/node (min max mean):      0     1     0
********************************************************************************

********************* Fourier parallelisation information **********************
       Double grid (whole simulation cell) dimensions:    378   378   378
          Real-space ('12') slabs/node (min max mean):      2     3     2
         Recip-space ('23') slabs/node (min max mean):      1     2     1
********************************************************************************

Atom SCF Calculation for C  : Z (AE atom) =   6 : Z (PS atom) =   4
Config String: 2s2 2p2
Orbitals (num,occ):  2     2.00 2.00
Orbitals   (num,l):  2        0    1
Real-space Grid (nr,dr,rmax): 1377    0.0065406977    9.0000000000
Spherical Bessel Basis (nsws,lmax,cutoff):   37    2  183.0099912382
Confining potential (l,width,scale):  0    3.0000000000  100.0000000000
Confining potential (l,width,scale):  1    3.0000000000  100.0000000000
  1         -5.4350126632   -1.2715272878    4.5135247139   -1.5681949477
  2         -5.3876836850   -1.3562195125    4.4235426751   -1.5380057521
  3         -5.3928844498   -1.3758175853    4.4021699684   -1.5318377811
  4         -5.3988962903   -1.3800385428    4.3975423583   -1.5307324410
  5         -5.4018428823   -1.3823489590    4.3950111904   -1.5301555648
  6         -5.4033571720   -1.3835805046    4.3936635548   -1.5298576834
  7         -5.4041480647   -1.3842324820    4.3929512000   -1.5297032953
  8         -5.4045641108   -1.3845769138    4.3925755232   -1.5296229456
  9         -5.4047838258   -1.3847587737    4.3923775340   -1.5295810042
 10         -5.4049001347   -1.3848548089    4.3922731819   -1.5295590658
 11         -5.4049618018   -1.3849055476    4.3922181562   -1.5295475724
 12         -5.4049945351   -1.3849323732    4.3921891206   -1.5295415432
 13         -5.4050119258   -1.3849465673    4.3921737867   -1.5295383767
 14         -5.4050211723   -1.3849540841    4.3921656816   -1.5295367119
 15         -5.4050260920   -1.3849580684    4.3921613935   -1.5295358358
 16         -5.4050287113   -1.3849601822    4.3921591228   -1.5295353742
 17         -5.4050301068   -1.3849613045    4.3921579192   -1.5295351307
 18         -5.4050308507   -1.3849619010    4.3921572806   -1.5295350022
 19         -5.4050312476   -1.3849622183    4.3921569415   -1.5295349343
 20         -5.4050314594   -1.3849623873    4.3921567612   -1.5295348984
 21         -5.4050315725   -1.3849624773    4.3921566653   -1.5295348794
 22         -5.4050316330   -1.3849625253    4.3921566143   -1.5295348693
Atom SCF converged after  22 iterations to a total energy of     -5.40503163

Atom SCF Calculation for H  : Z (AE atom) =   1 : Z (PS atom) =   1
Config String: 1s1
Orbitals (num,occ):  1     1.00
Orbitals   (num,l):  1        0
Real-space Grid (nr,dr,rmax): 1377    0.0065406977    9.0000000000
Spherical Bessel Basis (nsws,lmax,cutoff):   37    1  183.0099912382
Confining potential (l,width,scale):  0    3.0000000000  100.0000000000
  1         -0.3605254152   -0.2399954029    0.2820952946   -0.2424203210
  2         -0.4156854077   -0.2398249290    0.2871789324   -0.2464796203
  3         -0.4412552402   -0.2379720642    0.2899127187   -0.2499011370
  4         -0.4517265951   -0.2371980236    0.2908966173   -0.2514141636
  5         -0.4557775773   -0.2369735141    0.2911607883   -0.2519713623
  6         -0.4573363459   -0.2369240355    0.2912108681   -0.2521663171
  7         -0.4579443228   -0.2369187864    0.2912112833   -0.2522344454
  8         -0.4581858602   -0.2369215483    0.2912049187   -0.2522587615
  9         -0.4582834939   -0.2369242589    0.2912002081   -0.2522677042
 10         -0.4583235236   -0.2369258837    0.2911975892   -0.2522710965
 11         -0.4583401154   -0.2369267223    0.2911962825   -0.2522724192
 12         -0.4583470483   -0.2369271266    0.2911956643   -0.2522729467
 13         -0.4583499624   -0.2369273145    0.2911953803   -0.2522731607
 14         -0.4583511926   -0.2369274000    0.2911952521   -0.2522732486
 15         -0.4583517136   -0.2369274385    0.2911951948   -0.2522732850
 16         -0.4583519349   -0.2369274556    0.2911951693   -0.2522733002
 17         -0.4583520290   -0.2369274632    0.2911951581   -0.2522733066
Atom SCF converged after  17 iterations to a total energy of     -0.45835203

Atom SCF Calculation for Li : Z (AE atom) =   3 : Z (PS atom) =   3
Config String: 1s2 2s1 2p0
Orbitals (num,occ):  3     2.00 1.00 0.00
Orbitals   (num,l):  3        0    0    1
Real-space Grid (nr,dr,rmax): 1377    0.0065406977    9.0000000000
Spherical Bessel Basis (nsws,lmax,cutoff):   37    2  183.0099912382
Confining potential (l,width,scale):  0    3.0000000000  100.0000000000
Confining potential (l,width,scale):  1    3.0000000000  100.0000000000
  1         -6.0640888065   -4.6655401716    2.5388576516   -0.9989538799
  2         -6.9627542978   -4.0954079129    2.9808988108   -1.1965571426
  3         -7.2692687601   -3.8889996707    3.2029735703   -1.3193883705
  4         -7.3784440298   -3.8322099748    3.2868571989   -1.3711018151
  5         -7.4170278248   -3.8191968371    3.3144974220   -1.3911175539
  6         -7.4303549880   -3.8172386945    3.3228486489   -1.3986896266
  7         -7.4348052089   -3.8175483495    3.3251259310   -1.4015352495
  8         -7.4362242328   -3.8180607346    3.3256233205   -1.4026016384
  9         -7.4366459715   -3.8184145665    3.3256561549   -1.4029998726
 10         -7.4367560626   -3.8186169740    3.3256001574   -1.4031477379
 11         -7.4367765260   -3.8187239825    3.3255481763   -1.4032021548
 12         -7.4367751741   -3.8187782620    3.3255144587   -1.4032219192
 13         -7.4367707398   -3.8188051288    3.3254952336   -1.4032289600
 14         -7.4367680349   -3.8188156035    3.3254870176   -1.4032309087
 15         -7.4367661982   -3.8188217406    3.3254819951   -1.4032318132
 16         -7.4367650112   -3.8188253257    3.3254789583   -1.4032322224
 17         -7.4367642682   -3.8188274151    3.3254771375   -1.4032324006
 18         -7.4367638134   -3.8188286307    3.3254760529   -1.4032324736
 19         -7.4367635392   -3.8188293370    3.3254754103   -1.4032325004
 20         -7.4367633760   -3.8188297469    3.3254750310   -1.4032325080
 21         -7.4367632796   -3.8188299846    3.3254748079   -1.4032325082
Atom SCF converged after  21 iterations to a total energy of     -7.43676328

Determining parallel strategy ...
... using space-filling curve
... NGWF load balancing: max     16;  min     12;  average     14
... Projector load balancing: max     32;  min     24;  average     27
... done
Calculating Ewald energy ...
              Ewald: real-space energy =   36312.179439
        Ewald: reciprocal-space energy =   35832.240869
         Ewald: (sum_charge)**2 Energy =    2835.962212
         Ewald: (sum_charge**2) Energy =     251.837030
                          Ewald Energy =   69056.621067
======================= Empirical dispersion information =======================
Model : Grimme D2
Dispersion Correction Energy: -0.22708623E+01 Hartree
================================================================================
Basis initialisation ...... NGWF spheres initialised
... Projector spheres initialised
... NGWF tight boxes initialised
... Projector tight boxes initialised
... Tight-boxes gathered
... NGWF basis size (local,global):     279430  44453148
... PAW projector initialisation
... done

============================= Charge Augmentation ==============================
                           Aug box size:   13 x  13 x  13
================================================================================

========================== Sparse matrix information ===========================
                        Overlap matrix filling:  37.44%
                        Density kernel filling: 100.00%
              NGWF-Proj overlap matrix filling:  10.53%
                    Aug Overlap matrix filling:  41.71%
                    Hamiltonian matrix filling:  41.71%
                  NGWF diagonal matrix filling:   0.18%
                             KS matrix filling: 100.00% 
                           KSKS matrix filling: 100.00% 
================================================================================

Sparse matrix initialisation ... done
NGWF initialisation ...... done
============ Calculation of NGWF S^-1 using Hotelling algorithm ================ 
         Iteration  |  Frobenius norm and Maximum abs value    (of I-S*S_n^-1)   
               1       0.46614762E+02     0.99635330E+00
               2       0.46301461E+02     0.99273172E+00
               3       0.45724906E+02     0.98556120E+00
               4       0.44736814E+02     0.97149367E+00
               5       0.43221550E+02     0.94433907E+00
               6       0.41185024E+02     0.89330689E+00
               7       0.38693835E+02     0.80146822E+00
               8       0.35795049E+02     0.78216409E+00
               9       0.32705776E+02     0.75913797E+00
              10       0.29709327E+02     0.74088684E+00
              11       0.26559487E+02     0.72294365E+00
              12       0.22602637E+02     0.69099742E+00
              13       0.17439492E+02     0.63378961E+00
              14       0.11391164E+02     0.53768391E+00
              15       0.60169649E+01     0.46852739E+00
              16       0.31058282E+01     0.40967661E+00
              17       0.20444401E+01     0.34831228E+00
              18       0.12791241E+01     0.27350404E+00
              19       0.60913433E+00     0.17282292E+00
              20       0.19305419E+00     0.70096519E-01
              21       0.28149022E-01     0.11570653E-01
              22       0.74391887E-03     0.31530172E-03
              23       0.55141281E-06     0.23413339E-06
              24       0.31207201E-12     0.13378187E-12
================================================================================
Calculating core density ...
================================= Core Density =================================
               Core den box size:   21 x  21 x  21
================================================================================
 ... done
Up spin density kernel initialisation ...... done
Down spin density kernel initialisation ...... done

Writing density kernel to file "32/592nano.dkn" ... done

>>> Optimising kernel for current NGWFs:

--------------------------- Ensemble-DFT optimisation --------------------------
Running ScaLAPACK on  160 processor(s).

--------------------------------------------------------------------------------
  Iter                              Commutator    Free_energy(A=E-TS)     DeltaA
#    0                          0.001222279305   -3057.73778408484122  -3.06E+03

Step                       =       0.381966011250
Energy                     =   -3057.711565258499
Entropy (-TS)              =      -0.026218826605
Free energy (A=E-TS)       =   -3057.737784084841
Est. 0K Energy 0.5*(E+A)   =   -3057.724674671670
Residual Non-orthogonality =       0.000000000000
Residual N_electrons       =       0.000000000263

Spin          Integrated_Ne            Fermi_level     Delta_Fermi_level
   1      1070.000000000561        -0.234502447883             -2.35E-01
   2      1070.000000000561        -0.234502447883             -2.35E-01

                           Spin 1           |                 Spin 2           |
     Orb |    H-eigenvalues     Occupancies |    H-eigenvalues     Occupancies |
       1 |    -1.8914120063    1.0000000000 |    -1.8914120063    1.0000000000 | 
                          ------                             ------
    1066 |    -0.2541508322    0.9979836930 |    -0.2541508322    0.9979836930 | 
    1067 |    -0.2492802758    0.9906822177 |    -0.2492802758    0.9906822177 | 
    1068 |    -0.2452137283    0.9671485112 |    -0.2452137283    0.9671485112 | 
    1069 |    -0.2365604485    0.6569800881 |    -0.2365604485    0.6569800881 | 
    1070 |    -0.2354264216    0.5724288760 |    -0.2354264216    0.5724288760 | 
                 - Gap at zero temperature - |     - Gap at zero temperature -
    1071 |    -0.2309679291    0.2467330323 |    -0.2309679291    0.2467330323 | 
    1072 |    -0.2291888524    0.1573736367 |    -0.2291888524    0.1573736367 | 
    1073 |    -0.2273517987    0.0946619295 |    -0.2273517987    0.0946619295 | 
    1074 |    -0.2269559272    0.0844780315 |    -0.2269559272    0.0844780315 | 
    1075 |    -0.2267857453    0.0804134998 |    -0.2267857453    0.0804134998 | 
                          ------                             ------
    2204 |     0.5588700146    0.0000000000 |     0.5588700146    0.0000000000 | 

                       |  Abs_value |  Threshold | Converged
     Delta_Free_energy |   3.06E+03 |   1.00E-06 |        No
     Delta_Energy      |   3.06E+03 |   1.00E-04 |        No
     Delta_Entropy     |   2.62E-02 |   1.00E-04 |        No
     Commutator        |   1.22E-03 |   1.00E-05 |        No
     Delta_Fermi_level |   2.35E-01 |   1.00E-03 |        No

  Line search of the free energy minimum:
  Step_type        Step             Free_energy   Predicted_free_energy
.   Initial    0.000000    -3057.73778408484122
.    Trial1    0.381966    -3058.23511417287364
.    Trial2    0.618034    -3055.57311521503516
. Quadratic    0.222970    -3058.65931825078405    -3058.74961467012554

--------------------------------------------------------------------------------
  Iter                              Commutator    Free_energy(A=E-TS)     DeltaA
#    1                          0.000719905776   -3058.65931825078405  -9.22E-01

Step                       =       0.222970170431
Energy                     =   -3058.627526203805
Entropy (-TS)              =      -0.031792046944
Free energy (A=E-TS)       =   -3058.659318250784
Est. 0K Energy 0.5*(E+A)   =   -3058.643422227295
Residual Non-orthogonality =       0.000000000000
Residual N_electrons       =      -0.000000000035

Spin          Integrated_Ne            Fermi_level     Delta_Fermi_level
   1      1069.999999999805        -0.218457123334              1.60E-02
   2      1070.000000000037        -0.218457123331              1.60E-02

                           Spin 1           |                 Spin 2           |
     Orb |    H-eigenvalues     Occupancies |    H-eigenvalues     Occupancies |
       1 |    -1.9288926619    1.0000000000 |    -1.9288926621    1.0000000000 | 
                          ------                             ------
    1066 |    -0.2325953338    0.9886204653 |    -0.2325953339    0.9886204655 | 
    1067 |    -0.2284071960    0.9585917272 |    -0.2284071960    0.9585917280 | 
    1068 |    -0.2276696587    0.9482939004 |    -0.2276696580    0.9482938887 | 
    1069 |    -0.2196457272    0.5927466129 |    -0.2196457273    0.5927466179 | 
    1070 |    -0.2172514466    0.4059526229 |    -0.2172514467    0.4059526279 | 
                 - Gap at zero temperature - |     - Gap at zero temperature -
    1071 |    -0.2162545022    0.3328034124 |    -0.2162545023    0.3328034170 | 
[...]
 C   262 -- C   460       -0.09      0.00      5.41826
 C    51 -- C    57       -0.09      0.00      5.41876
 C    87 -- C    93       -0.09     -0.00      5.41876
 C    88 -- C   560       -0.08     -0.00      5.41898
 C    62 -- C   368       -0.09     -0.00      5.41898
 C   182 -- C   220       -0.08      0.00      5.41923
 C    67 -- C   511       -0.09      0.00      5.41926
 C    56 -- C   342       -0.09      0.00      5.41932
 C   230 -- C   318       -0.09     -0.00      5.41939
 C   105 -- C   477       -0.09     -0.00      5.41940
 C   199 -- C   241       -0.08     -0.00      5.41977
 C   183 -- C   237       -0.08     -0.00      5.42003
 C   427 -- C   445       -0.07     -0.00      5.42034
 C   260 -- C   420       -0.09      0.00      5.42122
 C   190 -- C   300       -0.09     -0.00      5.42219
 C    80 -- C   538       -0.08     -0.00      5.42261
 C   268 -- C   286       -0.09      0.00      5.42272
 C    35 -- C   497       -0.08     -0.00      5.42296
 C   416 -- C   476       -0.08      0.00      5.42339
 C    83 -- C   467       -0.09     -0.00      5.42383
 C    71 -- C   516       -0.09     -0.00      5.42394
 C    69 -- C    95       -0.09     -0.00      5.42397
 C   224 -- C   242       -0.08      0.00      5.42435
 C    36 -- C    98       -0.08      0.00      5.42483
 C   377 -- C   391       -0.08      0.00      5.42499
 C   333 -- C   365       -0.08      0.00      5.42550
 C   186 -- C   192       -0.08      0.00      5.42553
 C   252 -- C   286       -0.08     -0.00      5.42622
 C   182 -- C   188       -0.09     -0.00      5.42677
 C   231 -- C   241       -0.07     -0.00      5.42781
 C   332 -- C   388       -0.08      0.00      5.42849
 C   477 -- C   485       -0.08     -0.00      5.42879
 C   338 -- C   380       -0.07     -0.00      5.42886
 C   423 -- C   489       -0.07      0.00      5.42904
 C   103 -- C   525       -0.08     -0.00      5.42947
 C    76 -- C   564       -0.08     -0.00      5.43010
 C   406 -- C   440       -0.08     -0.00      5.43025
 C   189 -- C   255       -0.08      0.00      5.43035
 C    34 -- C   100       -0.08      0.00      5.43056
 C   227 -- C   309       -0.08      0.00      5.43085
 C   319 -- C   361       -0.08      0.00      5.43128
 C   262 -- C   292       -0.08      0.00      5.43148
 C   197 -- C   295       -0.08     -0.00      5.43212
 C   158 -- C   288       -0.06      0.00      5.43229
 C   285 -- C   287       -0.08      0.00      5.43233
 C   205 -- C   263       -0.08      0.00      5.43267
 C   385 -- C   395       -0.08      0.00      5.43274
 C    51 -- C   521       -0.08      0.00      5.43458
 C   202 -- C   216       -0.08     -0.00      5.43458
 C    68 -- C   556       -0.08      0.00      5.43520
 C   234 -- C   332       -0.09     -0.00      5.43544
 C    99 -- C   521       -0.08     -0.00      5.43597
 C   261 -- C   427       -0.08     -0.00      5.43752
 C   343 -- C   506       -0.08      0.00      5.43778
 C   316 -- C   390       -0.08     -0.00      5.43808
 C   198 -- C   204       -0.08     -0.00      5.43864
 C   466 -- C   538       -0.08      0.00      5.43935
 C   253 -- C   413       -0.08      0.00      5.43950
 C   440 -- C   488       -0.08      0.00      5.43987
 C   185 -- C   235       -0.08     -0.00      5.44025
 C    96 -- C   567       -0.08     -0.00      5.44084
 C   368 -- C   394       -0.08     -0.00      5.44136
 C   470 -- C   547       -0.08      0.00      5.44193
 C   481 -- C   489       -0.08      0.00      5.44276
 H   590 -- Li  599       -0.02     -0.00      5.44281
 C   330 -- C   394       -0.08      0.00      5.44334
 C   201 -- C   239       -0.08     -0.00      5.44343
 C   293 -- C   295       -0.08      0.00      5.44393
 H   587 -- Li  604       -0.02     -0.00      5.44535
 C   254 -- C   284       -0.08     -0.00      5.44690
 C   181 -- C   183       -0.08      0.00      5.44698
 C   231 -- C   323       -0.08      0.00      5.44933
 C   233 -- C   239       -0.07     -0.00      5.45226
 H   130 -- Li  619       -0.02      0.00      5.45370
 C    72 -- C   560       -0.08     -0.00      5.45387
 C    52 -- C   338       -0.08      0.00      5.45552
 C   364 -- C   390       -0.07     -0.00      5.45666
 C   188 -- C   286       -0.06      0.00      5.46056
 H   474 -- Li  610       -0.03      0.00      5.47146
 H   581 -- Li  601       -0.03     -0.00      5.47716
 H   582 -- Li  607       -0.02     -0.00      5.48262
 C   190 -- C   284       -0.06     -0.00      5.48448
 H   591 -- Li  612       -0.02      0.00      5.49043
 Li  613 -- Li  624       -0.11     -0.00      5.49884
 H   370 -- Li  615       -0.02      0.00      5.50246
 H   156 -- Li  620       -0.02      0.00      5.50493
 H   561 -- Li  609       -0.02     -0.00      5.51480
 H   141 -- Li  605       -0.02     -0.00      5.52248
 H   138 -- Li  620       -0.02     -0.00      5.52431
 C   445 -- Li  624       -0.03      0.00      5.52542
 C   445 -- Li  622       -0.06      0.00      5.55114
 C   190 -- Li  623       -0.06      0.00      5.55174
 H   583 -- Li  610        0.01      0.00      5.55372
 H   426 -- Li  613       -0.00      0.00      5.55620
 H   509 -- Li  597       -0.02     -0.00      5.56325
 H   586 -- Li  614       -0.01     -0.00      5.56686
 H   157 -- Li  612       -0.02      0.00      5.56977
 H   548 -- Li  596       -0.02     -0.00      5.57058
 C   286 -- Li  623       -0.06     -0.00      5.57249
 Li  607 -- Li  620       -0.12      0.00      5.57295
 H   370 -- Li  621       -0.02      0.00      5.57557
 H   151 -- Li  595       -0.02      0.00      5.57717
 H   401 -- Li  598       -0.02      0.00      5.57942
 H   141 -- Li  619       -0.02      0.00      5.58059
 C   491 -- Li  624       -0.02      0.00      5.58098
 H   154 -- Li  607       -0.02     -0.00      5.58441
 H   135 -- Li  595       -0.02      0.00      5.58470
 C   330 -- Li  620       -0.04      0.00      5.59268
 C   491 -- Li  622       -0.08      0.00      5.59556
 H   131 -- Li  594       -0.02      0.00      5.60349
 H   544 -- Li  596       -0.02      0.00      5.60597
 H   519 -- Li  601       -0.02      0.00      5.63215
 H   591 -- Li  611       -0.01     -0.00      5.63397
 C    91 -- Li  599       -0.06     -0.00      5.65198
 H   496 -- Li  621       -0.02      0.00      5.65285
 H   582 -- Li  603       -0.01      0.00      5.66284
 H   561 -- Li  618       -0.01     -0.00      5.66764
 C   309 -- Li  606       -0.05      0.00      5.66853
=============================================================


============== Orbital energy and occupancy information for spin 1 =============

      Total number of orbitals:    2204
        Occupancy sum (kernel):    1069.999999966
   Occupancy sum (eigenvalues):    1069.999999966
                 HOMO-LUMO gap:       0.001397480 Eh
                 Mid-gap level:      -0.079847819 Eh

                        Orbital | Energy (Eh) | Occupancy
                            1    -1.846829542   1.0000000
                        .......   ...........   .........
                         1062    -0.101782796   0.9967089
                         1063    -0.100537803   0.9950904
                         1064    -0.099361951   0.9928227
                         1065    -0.098033739   0.9892946
                         1066    -0.097219350   0.9861695
                         1067    -0.094292574   0.9656986
                         1068    -0.090245005   0.8860484
                         1069    -0.085556948   0.6397394
                         1070    -0.084534826   0.5605231
                         1071    -0.080546559   0.2677664
                        ....... -- gap at 0K -- .........
                         1072    -0.079149079   0.1889155
                         1073    -0.078255468   0.1496462
                         1074    -0.076617961   0.0950999
                         1075    -0.076183227   0.0842579
                         1076    -0.075903345   0.0775016
                         1077    -0.074623320   0.0529771
                         1078    -0.072260678   0.0259834
                         1079    -0.071388198   0.0196291
                         1080    -0.071047357   0.0176591
                         1081    -0.066900995   0.0047632
                        .......   ...........   .........
                         2204     0.772314523   0.0000000

================================================================================

============== Orbital energy and occupancy information for spin 2 =============

      Total number of orbitals:    2204
        Occupancy sum (kernel):    1070.000000034
   Occupancy sum (eigenvalues):    1070.000000034
                 HOMO-LUMO gap:       0.003988268 Eh
                 Mid-gap level:      -0.082540693 Eh

                        Orbital | Energy (Eh) | Occupancy
                            1    -1.846829542   1.0000000
                        .......   ...........   .........
                         1061    -0.103003994   0.9977306
                         1062    -0.101782796   0.9967089
                         1063    -0.100537803   0.9950904
                         1064    -0.099361951   0.9928227
                         1065    -0.098033739   0.9892946
                         1066    -0.097219350   0.9861695
                         1067    -0.094292574   0.9656986
                         1068    -0.090245005   0.8860484
                         1069    -0.085556949   0.6397395
                         1070    -0.084534827   0.5605231
                        ....... -- gap at 0K -- .........
                         1071    -0.080546559   0.2677664
                         1072    -0.079149079   0.1889155
                         1073    -0.078255468   0.1496462
                         1074    -0.076617961   0.0950999
                         1075    -0.076183227   0.0842579
                         1076    -0.075903345   0.0775016
                         1077    -0.074623320   0.0529771
                         1078    -0.072260678   0.0259834
                         1079    -0.071388199   0.0196291
                         1080    -0.071047357   0.0176591
                        .......   ...........   .........
                         2204     0.772314524   0.0000000

================================================================================

===================== Writing canonical molecular orbitals =====================
    Spin 1
| Orbital  Energy (eV)  Norm     |
| HOMO     -2.19178339  1.000000 | Writing "32/592nano_HOMO_UP.cube" ... done
Writing "32/592nano_HOMO_UP.dx" ... done
| LUMO     -2.15375604  1.000000 | Writing "32/592nano_LUMO_UP.cube" ... done
Writing "32/592nano_LUMO_UP.dx" ... done
================================================================================

===================== Writing canonical molecular orbitals =====================
    Spin 2
| Orbital  Energy (eV)  Norm     |
| HOMO     -2.30030968  1.000000 | Writing "32/592nano_HOMO_DN.cube" ... done
Writing "32/592nano_HOMO_DN.dx" ... done
| LUMO     -2.19178338  1.000000 | Writing "32/592nano_LUMO_DN.cube" ... done
Writing "32/592nano_LUMO_DN.dx" ... done
================================================================================

================== Local Density of States (LDOS) calculation ==================
Writing "32/592nano_UP_LDOS.txt" ...  done
================================================================================

================== Local Density of States (LDOS) calculation ==================
Writing "32/592nano_DN_LDOS.txt" ...  done
================================================================================
 
=============== Density of States (DOS) calculation for UP spin ================
Writing "32/592nano_UP_DOS.txt" ...  done
================================================================================
 
============== Density of States (DOS) calculation for DOWN spin ===============
Writing "32/592nano_DN_DOS.txt" ...  done
================================================================================
 
Writing bands to file "32/592nano.val_bands" ... done
 
================ Projected Density of States (pDOS) calculation ================
 
Constructing AM resolved functions  ...... done
Writing NGWF plot files in formats: CUBE DX ...  done
 
Performing overlap integrals ...  done
 
Computing pDOS weights ...  done
 
All bands spilling parameter =   3.12 %
Occupancy-weighted spilling parameter =   0.88 %
 
 => Outputting data for OptaDOS <=
 
Writing pDOS weights to file "32/592nano.val_pdos_bin" ... done
 
Writing band gradients to file "32/592nano.val_dome_bin" ... done
 
Writing Castep output cell file to "32/592nano-out.cell" ... done
 
 => Computing Gaussian smeared pDOS for UP spin<= 
Writing "32/592nano_UP_PDOS.txt" ...  done
 
 => Computing Gaussian smeared pDOS for DOWN spin<= 
Writing "32/592nano_DN_PDOS.txt" ...  done
 
 => Computing Occupancy-weighted Gaussian smeared pDOS for UP spin<= 
Writing "32/592nano_occ_UP_PDOS.txt" ...  done
  => Band centres for UP spin channel: 
 S band centre of group 1:  -17.839125 eV
 P band centre of group 1:   -8.224462 eV
  Band centres for UP spin channel done. <= 
  => Integrated number of electrons in each AM band for UP spin channel: 
 S num electrons of group 1:  296.898940
 P num electrons of group 1:  763.687550
  Integrated number of electrons for UP spin channel done. <= 
 
 => Computing Occupancy-weighted Gaussian smeared pDOS for DOWN spin<= 
Writing "32/592nano_occ_DN_PDOS.txt" ...  done
  => Band centres for DOWN spin channel: 
 S band centre of group 1:  -17.839125 eV
 P band centre of group 1:   -8.224462 eV
  Band centres for DOWN spin channel done. <=
  => Integrated number of electrons in each AM band for DOWN spin channel: 
 S num electrons of group 1:  296.898940
 P num electrons of group 1:  763.687550
  Integrated number of electrons for DOWN spin channel done. <=
================================================================================

------------------------------ TIMING INFORMATION ------------------------------
AVERAGE TIME:   14566.057s on    160 node(s)                                    
TOTAL TIME:     14566.067s on    160 node(s)                                    
================= AVERAGE TIMINGS FROM ALL NODES (CUMULATIVE) ==================
|| TAG                                    #calls    cpu time   %total  Gflops ||
|| work_imbalance                       :     1        0.00s   0.000%  ------ ||
|| paw_tcore_density                    :     1        0.01s   0.000%  ------ ||
|| sparse_set_to_garbage                :   201        0.01s   0.000%  ------ ||
|| paw_sphere_density_on_grid           :     1        0.01s   0.000%  ------ ||
|| basis_extract_function_from_box      :   330        0.02s   0.000%  ------ ||
|| paw_dij_hartree                      :   877        0.03s   0.000%  ------ ||
|| ngwfs_initialise_from_radial         :     2        0.04s   0.000%  ------ ||
|| ewald_calculate_energy               :     1        0.11s   0.001%  ------ ||
|| density_init_guess_real              :     1        0.19s   0.001%  ------ ||
|| paw_tcore_hartree_on_grid            :     1        0.38s   0.003%  ------ ||
|| pseudo_make_structure_factor         :     1        0.50s   0.003%  ------ ||
|| paw_dataset_init                     :     3        0.66s   0.005%  ------ ||
|| dense_normal_eigensolve              :     1        0.99s   0.007%  ------ ||
|| sparse_init                          :     1        1.01s   0.007%  ------ ||
|| restart_kernel_write                 :    13        1.48s   0.010%  ------ ||
|| paw_species_calc_proj_prec_mat       :     1        2.18s   0.015%  ------ ||
|| sparse_embed_hotelling_invert_embed  :    23        4.53s   0.031%  ------ ||
|| sw_init                              :     1        7.55s   0.052%  ------ ||
|| augmentation_screen_dij              :   661        7.70s   0.053%  ------ ||
|| fourier_apply_box_pair               :   825        9.37s   0.064%  2.328k ||
|| ngwf_gradient_coeffs                 :    12       11.06s   0.076%  ------ ||
|| projectors_init_fftbox_recip         :    49       18.61s   0.128%  ------ ||
|| integrals_kinetic                    :    23       28.75s   0.197%  ------ ||
|| basis_copy_function_to_box           : 24560       32.18s   0.221%  ------ ||
|| hartree_on_grid                      :   656       32.45s   0.223%  ------ ||
|| projectors_func_ovlp_box             :    24       33.75s   0.232%  ------ ||
|| function_ops_brappd_ketppd           :    48       34.12s   0.234%  ------ ||
|| paw_dij_xc                           :   877       38.43s   0.264%  ------ ||
|| hamiltonian_energy_components        :     3       68.74s   0.472%  ------ ||
|| sparse_trace                         : 16404       73.85s   0.507%  ------ ||
|| augmentation_density_on_grid         :   656       97.89s   0.672%  ------ ||
|| aug_nonlocal_mat                     :   865      108.34s   0.744%  ------ ||
|| fourier_apply_cell_forward           :  5896      111.36s   0.764% 184.290 ||
|| eigenstates_pdos                     :     1      117.29s   0.805%  ------ ||
|| fourier_apply_cell_backward          :  5897      117.60s   0.807% 174.527 ||
|| basis_dot_function_with_box          : 5.205M     143.89s   0.988%  ------ ||
|| restart_ngwfs_tightbox_output        :    11      157.53s   1.081%  ------ ||
|| xc_energy_potential                  :   655      233.49s   1.603%  ------ ||
|| eigenstates_calculate                :     1      245.91s   1.688%  ------ ||
|| sparse_product                       : 14095      371.21s   2.548%  ------ ||
|| dense_eigensolve                     :  1258      380.63s   2.613%  ------ ||
|| basis_add_function_to_box            : 16.00M     519.03s   3.563%  ------ ||
|| projectors_gradient_batch            :    12      524.33s   3.600%  ------ ||
|| integrals_locpot_mat_els_batch       :   433      540.93s   3.714%  ------ ||
|| cell_grid_deposit_box_real           : 42068      643.62s   4.419%  ------ ||
|| cell_grid_extract_box_real           : 12620      703.74s   4.831%  ------ ||
|| projectors_grad_precond_batch        :    12      730.29s   5.014%  ------ ||
|| density_fftbox_deposit_to_cell       : 20992     1141.88s   7.839%  ------ ||
|| density_batch_row_sums               :   656     1251.65s   8.593%  ------ ||
|| ngwf_gradient_build_batch            :    12     1389.37s   9.538%  ------ ||
|| potential_apply_to_ngwf_batch        :   433     1442.64s   9.904%  ------ ||
|| edft_diag_ngwf_ham                   :  1256     1473.02s  10.113%  ------ ||
|| ngwf_gradient_batch                  :    12     1506.68s  10.344%  ------ ||
|| ngwf_gradient_lnv                    :    12     1525.77s  10.475%  ------ ||
|| fourier_apply_box                    : 77986     1680.21s  11.535%  4.023k ||
|| properties_calculate                 :     1     1788.83s  12.281%  ------ ||
|| density_fftbox_interpolate_multiply  : 20992     1936.76s  13.296%  ------ ||
|| integrals_locpot_dbl_grid            :   433     1998.94s  13.723%  ------ ||
|| edft_apply_smearing_operator         :   628     2465.07s  16.923%  ------ ||
|| density_batch_interp_deposit         :   656     3725.31s  25.575%  ------ ||
|| density_on_dbl_grid                  :   656     5084.03s  34.903%  ------ ||
|| hamiltonian_lhxc_calculate           :   651     5579.92s  38.308%  ------ ||
|| edft_calculate                       :    12    10269.00s  70.500%  ------ ||
|| ngwf_cg_optimise                     :     1    12756.89s  87.580%  ------ ||
|| total_time                           :     1    14566.06s 100.000%  ------ ||
================================================================================
Overhead of generating timer report: 
- 0 ms averaging over threads,
- 26 ms ensuring consistency across MPI ranks,
- 0 ms printing in order.

Job completed: 29-09-2020 21:17 (+0100)

